
                                 *****************
                                 * O   R   C   A *
                                 *****************

                                            #,                                       
                                            ###                                      
                                            ####                                     
                                            #####                                    
                                            ######                                   
                                           ########,                                 
                                     ,,################,,,,,                         
                               ,,#################################,,                 
                          ,,##########################################,,             
                       ,#########################################, ''#####,          
                    ,#############################################,,   '####,        
                  ,##################################################,,,,####,       
                ,###########''''           ''''###############################       
              ,#####''   ,,,,##########,,,,          '''####'''          '####       
            ,##' ,,,,###########################,,,                        '##       
           ' ,,###''''                  '''############,,,                           
         ,,##''                                '''############,,,,        ,,,,,,###''
      ,#''                                            '''#######################'''  
     '                                                          ''''####''''         
             ,#######,   #######,   ,#######,      ##                                
            ,#'     '#,  ##    ##  ,#'     '#,    #''#        ######   ,####,        
            ##       ##  ##   ,#'  ##            #'  '#       #        #'  '#        
            ##       ##  #######   ##           ,######,      #####,   #    #        
            '#,     ,#'  ##    ##  '#,     ,#' ,#      #,         ##   #,  ,#        
             '#######'   ##     ##  '#######'  #'      '#     #####' # '####'        



                  #######################################################
                  #                        -***-                        #
                  #          Department of theory and spectroscopy      #
                  #    Directorship and core code : Frank Neese         #
                  #        Max Planck Institute fuer Kohlenforschung    #
                  #                Kaiser Wilhelm Platz 1               #
                  #                 D-45470 Muelheim/Ruhr               #
                  #                      Germany                        #
                  #                                                     #
                  #                  All rights reserved                #
                  #                        -***-                        #
                  #######################################################


                         Program Version 5.0.4 -  RELEASE  -


 With contributions from (in alphabetic order):
   Daniel Aravena         : Magnetic Suceptibility
   Michael Atanasov       : Ab Initio Ligand Field Theory (pilot matlab implementation)
   Alexander A. Auer      : GIAO ZORA, VPT2 properties, NMR spectrum
   Ute Becker             : Parallelization
   Giovanni Bistoni       : ED, misc. LED, open-shell LED, HFLD
   Martin Brehm           : Molecular dynamics
   Dmytro Bykov           : SCF Hessian
   Vijay G. Chilkuri      : MRCI spin determinant printing, contributions to CSF-ICE
   Dipayan Datta          : RHF DLPNO-CCSD density
   Achintya Kumar Dutta   : EOM-CC, STEOM-CC
   Dmitry Ganyushin       : Spin-Orbit,Spin-Spin,Magnetic field MRCI
   Miquel Garcia          : C-PCM and meta-GGA Hessian, CC/C-PCM, Gaussian charge scheme
   Yang Guo               : DLPNO-NEVPT2, F12-NEVPT2, CIM, IAO-localization
   Andreas Hansen         : Spin unrestricted coupled pair/coupled cluster methods
   Benjamin Helmich-Paris : MC-RPA, TRAH-SCF, COSX integrals
   Lee Huntington         : MR-EOM, pCC
   Robert Izsak           : Overlap fitted RIJCOSX, COSX-SCS-MP3, EOM
   Marcus Kettner         : VPT2
   Christian Kollmar      : KDIIS, OOCD, Brueckner-CCSD(T), CCSD density, CASPT2, CASPT2-K
   Simone Kossmann        : Meta GGA functionals, TD-DFT gradient, OOMP2, MP2 Hessian
   Martin Krupicka        : Initial AUTO-CI
   Lucas Lang             : DCDCAS
   Marvin Lechner         : AUTO-CI (C++ implementation), FIC-MRCC
   Dagmar Lenk            : GEPOL surface, SMD
   Dimitrios Liakos       : Extrapolation schemes; Compound Job, initial MDCI parallelization
   Dimitrios Manganas     : Further ROCIS development; embedding schemes
   Dimitrios Pantazis     : SARC Basis sets
   Anastasios Papadopoulos: AUTO-CI, single reference methods and gradients
   Taras Petrenko         : DFT Hessian,TD-DFT gradient, ASA, ECA, R-Raman, ABS, FL, XAS/XES, NRVS
   Peter Pinski           : DLPNO-MP2, DLPNO-MP2 Gradient
   Christoph Reimann      : Effective Core Potentials
   Marius Retegan         : Local ZFS, SOC
   Christoph Riplinger    : Optimizer, TS searches, QM/MM, DLPNO-CCSD(T), (RO)-DLPNO pert. Triples
   Tobias Risthaus        : Range-separated hybrids, TD-DFT gradient, RPA, STAB
   Michael Roemelt        : Original ROCIS implementation
   Masaaki Saitow         : Open-shell DLPNO-CCSD energy and density
   Barbara Sandhoefer     : DKH picture change effects
   Avijit Sen             : IP-ROCIS
   Kantharuban Sivalingam : CASSCF convergence, NEVPT2, FIC-MRCI
   Bernardo de Souza      : ESD, SOC TD-DFT
   Georgi Stoychev        : AutoAux, RI-MP2 NMR, DLPNO-MP2 response
   Willem Van den Heuvel  : Paramagnetic NMR
   Boris Wezisla          : Elementary symmetry handling
   Frank Wennmohs         : Technical directorship


 We gratefully acknowledge several colleagues who have allowed us to
 interface, adapt or use parts of their codes:
   Stefan Grimme, W. Hujo, H. Kruse, P. Pracht,  : VdW corrections, initial TS optimization,
                  C. Bannwarth, S. Ehlert          DFT functionals, gCP, sTDA/sTD-DF
   Ed Valeev, F. Pavosevic, A. Kumar             : LibInt (2-el integral package), F12 methods
   Garnet Chan, S. Sharma, J. Yang, R. Olivares  : DMRG
   Ulf Ekstrom                                   : XCFun DFT Library
   Mihaly Kallay                                 : mrcc  (arbitrary order and MRCC methods)
   Jiri Pittner, Ondrej Demel                    : Mk-CCSD
   Frank Weinhold                                : gennbo (NPA and NBO analysis)
   Christopher J. Cramer and Donald G. Truhlar   : smd solvation model
   Lars Goerigk                                  : TD-DFT with DH, B97 family of functionals
   V. Asgeirsson, H. Jonsson                     : NEB implementation
   FAccTs GmbH                                   : IRC, NEB, NEB-TS, DLPNO-Multilevel, CI-OPT
                                                   MM, QMMM, 2- and 3-layer-ONIOM, Crystal-QMMM,
                                                   LR-CPCM, SF, NACMEs, symmetry and pop. for TD-DFT,
                                                   nearIR, NL-DFT gradient (VV10), updates on ESD,
                                                   ML-optimized integration grids
   S Lehtola, MJT Oliveira, MAL Marques          : LibXC Library
   Liviu Ungur et al                             : ANISO software


 Your calculation uses the libint2 library for the computation of 2-el integrals
 For citations please refer to: http://libint.valeyev.net

 Your ORCA version has been built with support for libXC version: 5.1.0
 For citations please refer to: https://tddft.org/programs/libxc/

 This ORCA versions uses:
   CBLAS   interface :  Fast vector & matrix operations
   LAPACKE interface :  Fast linear algebra routines
   SCALAPACK package :  Parallel linear algebra routines
   Shared memory     :  Shared parallel matrices


Your calculation utilizes the geometrical counterpoise correction gCP
Please cite in your paper:
H.Kruse, S. Grimme J.Chem.Phys., 136, (2012), 154101 
   

Your calculation utilizes the atom-pairwise dispersion correction
based on tight binding partial charges (D4)
Cite in your paper:
E.Caldeweyher, C.Bannwarth, S.Grimme, J.Chem.Phys., (2017), 147, 034112.
E.Caldeweyher, S.Ehlert, A.Hansen, H.Neugebauer, S.Grimme, J.Chem.Phys., (2018), in progress.
   

================================================================================

----- Orbital basis set information -----
Your calculation utilizes the basis: def2-mTZVPP
   Stefan Grimme, Andreas Hansen, Sebastian Ehlert, and Jan-Michael Mewes 
   J. Chem. Phys. 154, 000000 (2021). DOI: 10.1063/5.0040021

----- AuxJ basis set information -----
Your calculation utilizes the basis: def2-mTZVPP/J
   Stefan Grimme, Andreas Hansen, Sebastian Ehlert, and Jan-Michael Mewes 
   J. Chem. Phys. 154, 000000 (2021). DOI: 10.1063/5.0040021

================================================================================
                                        WARNINGS
                       Please study these warnings very carefully!
================================================================================

WARNING: Old DensityContainer found on disk!
         Will remove this file - 
         If you want to keep old densities, please start your calculation with a different basename. 

Using LibXC functional ID 497 : Re-regularized SCAN exchange by Furness et al
[ 1]  J. W. Furness, A. D. Kaplan, J. Ning, J. P. Perdew, and J. Sun, J. Phys. Chem. Lett. 11, 8208 (2020)
[ 2]  J. W. Furness, A. D. Kaplan, J. Ning, J. P. Perdew, and J. Sun, J. Phys. Chem. Lett. 11, 9248 (2020)
Using LibXC functional ID 498 : Re-regularized SCAN correlation by Furness et al
[ 1]  J. W. Furness, A. D. Kaplan, J. Ning, J. P. Perdew, and J. Sun, J. Phys. Chem. Lett. 11, 8208 (2020)
[ 2]  J. W. Furness, A. D. Kaplan, J. Ning, J. P. Perdew, and J. Sun, J. Phys. Chem. Lett. 11, 9248 (2020)
Using LibXC functional ID 497 : Re-regularized SCAN exchange by Furness et al
[ 1]  J. W. Furness, A. D. Kaplan, J. Ning, J. P. Perdew, and J. Sun, J. Phys. Chem. Lett. 11, 8208 (2020)
[ 2]  J. W. Furness, A. D. Kaplan, J. Ning, J. P. Perdew, and J. Sun, J. Phys. Chem. Lett. 11, 9248 (2020)
Using LibXC functional ID 498 : Re-regularized SCAN correlation by Furness et al
[ 1]  J. W. Furness, A. D. Kaplan, J. Ning, J. P. Perdew, and J. Sun, J. Phys. Chem. Lett. 11, 8208 (2020)
[ 2]  J. W. Furness, A. D. Kaplan, J. Ning, J. P. Perdew, and J. Sun, J. Phys. Chem. Lett. 11, 9248 (2020)

WARNING: Geometry Optimization
  ===> : Switching off AutoStart
         For restart on a previous wavefunction, please use MOREAD

INFO   : the flag for use of the SHARK integral package has been found!

================================================================================
                                       INPUT FILE
================================================================================
NAME = ORCA.inp
|  1> ! R2SCAN-3C DEF2-MTZVPP  opt  cpcm(acetonitrile) nopop 
|  2> %pal nprocs 1 end  %maxcore 4000 %geom maxiter 1000 end 
|  3> *xyz 0 1 
|  4> C   0.2274 1.1666 -0.0
|  5> C   -0.4707 2.3821 -0.0
|  6> C   -1.8644 2.3637 -0.0
|  7> C   -2.5538 1.1519 -0.0
|  8> C   -1.8487 -0.0537 -0.0
|  9> C   -0.4574 -0.0605 -0.0
| 10> O   1.6025 1.1007 -0.0
| 11> H   0.075 3.3355 -0.0
| 12> H   -2.4201 3.3132 -0.0
| 13> H   -3.6531 1.1446 -0.0
| 14> H   -2.3957 -1.0086 -0.0
| 15> H   0.1122 -0.9999 -0.0
| 16> C   2.1019 1.0767 1.4142
| 17> H   1.8963 2.084 1.9069
| 18> H   3.2237 0.8739 1.4177
| 19> H   1.5652 0.2541 1.9929
| 20> *
| 21> 
| 22>                          ****END OF INPUT****
================================================================================

                       *****************************
                       * Geometry Optimization Run *
                       *****************************

Geometry optimization settings:
Update method            Update   .... BFGS
Choice of coordinates    CoordSys .... Z-matrix Internals
Initial Hessian          InHess   .... Almoef's Model

Convergence Tolerances:
Energy Change            TolE     ....  5.0000e-06 Eh
Max. Gradient            TolMAXG  ....  3.0000e-04 Eh/bohr
RMS Gradient             TolRMSG  ....  1.0000e-04 Eh/bohr
Max. Displacement        TolMAXD  ....  4.0000e-03 bohr
RMS Displacement         TolRMSD  ....  2.0000e-03 bohr
Strict Convergence                ....  False
------------------------------------------------------------------------------
                        ORCA OPTIMIZATION COORDINATE SETUP
------------------------------------------------------------------------------

The optimization will be done in new redundant internal coordinates
Making redundant internal coordinates   ...  (new redundants) done
Evaluating the initial hessian          ...  (Almloef) done
Evaluating the coordinates              ...  done
Calculating the B-matrix                .... done
Calculating the G-matrix                .... done
Diagonalizing the G-matrix              .... done
Small eigenvalue found = 2.750e-02
The first mode is                       ....   28
The number of degrees of freedom        ....   42

    -----------------------------------------------------------------
                    Redundant Internal Coordinates


    -----------------------------------------------------------------
         Definition                    Initial Value    Approx d2E/dq
    -----------------------------------------------------------------
      1. B(C   1,C   0)                  1.4017         0.598494   
      2. B(C   2,C   1)                  1.3938         0.616086   
      3. B(C   3,C   2)                  1.3942         0.615281   
      4. B(C   4,C   3)                  1.3967         0.609713   
      5. B(C   5,C   4)                  1.3913         0.621782   
      6. B(C   5,C   0)                  1.4052         0.590758   
      7. B(O   6,C   0)                  1.3767         0.587665   
      8. B(H   7,C   1)                  1.0985         0.348996   
      9. B(H   8,C   2)                  1.1002         0.346907   
     10. B(H   9,C   3)                  1.0993         0.347974   
     11. B(H  10,C   4)                  1.1005         0.346507   
     12. B(H  11,C   5)                  1.0986         0.348904   
     13. B(C  12,O   6)                  1.5000         0.373603   
     14. B(H  13,C  12)                  1.1400         0.299638   
     15. B(H  14,C  12)                  1.1400         0.299687   
     16. B(H  15,C  12)                  1.1400         0.299670   
     17. A(C   1,C   0,C   5)          120.9656         0.427597   
     18. A(C   1,C   0,O   6)          122.6138         0.424412   
     19. A(C   5,C   0,O   6)          116.4206         0.423426   
     20. A(C   0,C   1,C   2)          119.1137         0.430830   
     21. A(C   0,C   1,H   7)          120.3443         0.348959   
     22. A(C   2,C   1,H   7)          120.5420         0.350669   
     23. A(C   1,C   2,H   8)          119.5821         0.350314   
     24. A(C   3,C   2,H   8)          120.0257         0.350237   
     25. A(C   1,C   2,C   3)          120.3922         0.432976   
     26. A(C   4,C   3,H   9)          119.9409         0.349881   
     27. A(C   2,C   3,H   9)          120.0163         0.350418   
     28. A(C   2,C   3,C   4)          120.0428         0.432168   
     29. A(C   3,C   4,H  10)          119.8730         0.349632   
     30. A(C   3,C   4,C   5)          120.6014         0.432985   
     31. A(C   5,C   4,H  10)          119.5256         0.350791   
     32. A(C   0,C   5,C   4)          118.8843         0.430535   
     33. A(C   4,C   5,H  11)          121.5103         0.351199   
     34. A(C   0,C   5,H  11)          119.6054         0.348179   
     35. A(C   0,O   6,C  12)          109.4705         0.387999   
     36. A(H  14,C  12,H  15)          109.4723         0.274737   
     37. A(H  13,C  12,H  15)          109.4674         0.274730   
     38. A(O   6,C  12,H  15)          109.4754         0.312882   
     39. A(H  13,C  12,H  14)          109.4707         0.274732   
     40. A(O   6,C  12,H  14)          109.4732         0.312885   
     41. A(O   6,C  12,H  13)          109.4682         0.312876   
     42. D(H   7,C   1,C   0,C   5)    180.0000         0.024687   
     43. D(H   7,C   1,C   0,O   6)      0.0000         0.024687   
     44. D(C   2,C   1,C   0,C   5)      0.0000         0.024687   
     45. D(C   2,C   1,C   0,O   6)    180.0000         0.024687   
     46. D(C   3,C   2,C   1,H   7)    180.0000         0.026245   
     47. D(H   8,C   2,C   1,C   0)    180.0000         0.026245   
     48. D(C   3,C   2,C   1,C   0)      0.0000         0.026245   
     49. D(H   8,C   2,C   1,H   7)      0.0000         0.026245   
     50. D(H   9,C   3,C   2,H   8)      0.0000         0.026172   
     51. D(H   9,C   3,C   2,C   1)    180.0000         0.026172   
     52. D(C   4,C   3,C   2,H   8)    180.0000         0.026172   
     53. D(C   4,C   3,C   2,C   1)      0.0000         0.026172   
     54. D(H  10,C   4,C   3,C   2)    180.0000         0.025673   
     55. D(C   5,C   4,C   3,H   9)    180.0000         0.025673   
     56. D(C   5,C   4,C   3,C   2)      0.0000         0.025673   
     57. D(H  10,C   4,C   3,H   9)      0.0000         0.025673   
     58. D(H  11,C   5,C   4,H  10)      0.0000         0.026762   
     59. D(C   0,C   5,C   4,H  10)    180.0000         0.026762   
     60. D(C   0,C   5,C   4,C   3)      0.0000         0.026762   
     61. D(H  11,C   5,C   0,O   6)      0.0000         0.024020   
     62. D(H  11,C   5,C   0,C   1)    180.0000         0.024020   
     63. D(H  11,C   5,C   4,C   3)    180.0000         0.026762   
     64. D(C   4,C   5,C   0,O   6)    180.0000         0.024020   
     65. D(C   4,C   5,C   0,C   1)      0.0000         0.024020   
     66. D(C  12,O   6,C   0,C   5)    -89.9973         0.025157   
     67. D(C  12,O   6,C   0,C   1)     90.0027         0.025157   
     68. D(H  15,C  12,O   6,C   0)     52.0332         0.011087   
     69. D(H  14,C  12,O   6,C   0)    172.0383         0.011087   
     70. D(H  13,C  12,O   6,C   0)    -67.9629         0.011087   
    -----------------------------------------------------------------

Number of atoms                         .... 16
Number of degrees of freedom            .... 70

         *************************************************************
         *                GEOMETRY OPTIMIZATION CYCLE   1            *
         *************************************************************
---------------------------------
CARTESIAN COORDINATES (ANGSTROEM)
---------------------------------
  C      0.227400    1.166600   -0.000000
  C     -0.470700    2.382100   -0.000000
  C     -1.864400    2.363700   -0.000000
  C     -2.553800    1.151900   -0.000000
  C     -1.848700   -0.053700   -0.000000
  C     -0.457400   -0.060500   -0.000000
  O      1.602500    1.100700   -0.000000
  H      0.075000    3.335500   -0.000000
  H     -2.420100    3.313200   -0.000000
  H     -3.653100    1.144600   -0.000000
  H     -2.395700   -1.008600   -0.000000
  H      0.112200   -0.999900   -0.000000
  C      2.101900    1.076700    1.414200
  H      1.896300    2.084000    1.906900
  H      3.223700    0.873900    1.417700
  H      1.565200    0.254100    1.992900

----------------------------
CARTESIAN COORDINATES (A.U.)
----------------------------
  NO LB      ZA    FRAG     MASS         X           Y           Z
   0 C     6.0000    0    12.011    0.429724    2.204555   -0.000000
   1 C     6.0000    0    12.011   -0.889494    4.501517   -0.000000
   2 C     6.0000    0    12.011   -3.523205    4.466746   -0.000000
   3 C     6.0000    0    12.011   -4.825983    2.176776   -0.000000
   4 C     6.0000    0    12.011   -3.493537   -0.101478   -0.000000
   5 C     6.0000    0    12.011   -0.864361   -0.114328   -0.000000
   6 O     8.0000    0    15.999    3.028286    2.080022   -0.000000
   7 H     1.0000    0     1.008    0.141729    6.303182   -0.000000
   8 H     1.0000    0     1.008   -4.573326    6.261041   -0.000000
   9 H     1.0000    0     1.008   -6.903359    2.162981   -0.000000
  10 H     1.0000    0     1.008   -4.527217   -1.905978   -0.000000
  11 H     1.0000    0     1.008    0.212027   -1.889537   -0.000000
  12 C     6.0000    0    12.011    3.972015    2.034668    2.672451
  13 H     1.0000    0     1.008    3.583488    3.938189    3.603519
  14 H     1.0000    0     1.008    6.091910    1.651432    2.679065
  15 H     1.0000    0     1.008    2.957799    0.480179    3.766035

--------------------------------
INTERNAL COORDINATES (ANGSTROEM)
--------------------------------
 C      0   0   0     0.000000000000     0.00000000     0.00000000
 C      1   0   0     1.401707480183     0.00000000     0.00000000
 C      2   1   0     1.393821455567   119.11372032     0.00000000
 C      3   2   1     1.394177750504   120.39218735     0.00000000
 C      4   3   2     1.396652200800   120.04280088     0.00000000
 C      5   4   3     1.391316617453   120.60143379     0.00000000
 O      1   2   3     1.376678183164   122.61384211   180.00000000
 H      2   1   3     1.098526308288   120.34425171   180.00000085
 H      3   2   1     1.100160324680   119.58214485   180.00000000
 H      4   3   2     1.099324237884   120.01626926   180.00000000
 H      5   4   3     1.100473993332   119.87301313   180.00000000
 H      6   5   4     1.098597524119   121.51032830   180.00000000
 C      7   1   2     1.499979333191   109.47054177    90.00270573
 H     13   7   1     1.140034183698   109.46820922   292.03711756
 H     13   7   1     1.139989179773   109.47324937   172.03833835
 H     13   7   1     1.140004973673   109.47539037    52.03319317

---------------------------
INTERNAL COORDINATES (A.U.)
---------------------------
 C      0   0   0     0.000000000000     0.00000000     0.00000000
 C      1   0   0     2.648843257414     0.00000000     0.00000000
 C      2   1   0     2.633940830606   119.11372032     0.00000000
 C      3   2   1     2.634614130459   120.39218735     0.00000000
 C      4   3   2     2.639290163851   120.04280088     0.00000000
 C      5   4   3     2.629207372559   120.60143379     0.00000000
 O      1   2   3     2.601544740724   122.61384211   180.00000000
 H      2   1   3     2.075913873571   120.34425171   180.00000085
 H      3   2   1     2.079001717051   119.58214485   180.00000000
 H      4   3   2     2.077421741983   120.01626926   180.00000000
 H      5   4   3     2.079594464900   119.87301313   180.00000000
 H      6   5   4     2.076048451989   121.51032830   180.00000000
 C      7   1   2     2.834550146273   109.47054177    90.00270573
 H     13   7   1     2.154352390498   109.46820922   292.03711756
 H     13   7   1     2.154267345405   109.47324937   172.03833835
 H     13   7   1     2.154297191551   109.47539037    52.03319317

---------------------
BASIS SET INFORMATION
---------------------
There are 3 groups of distinct atoms

 Group   1 Type C   : 11s6p1d contracted to 5s3p1d pattern {62111/411/1}
 Group   2 Type O   : 11s6p2d contracted to 5s3p2d pattern {62111/411/11}
 Group   3 Type H   : 4s1p contracted to 2s1p pattern {31/1}

Atom   0C    basis set group =>   1
Atom   1C    basis set group =>   1
Atom   2C    basis set group =>   1
Atom   3C    basis set group =>   1
Atom   4C    basis set group =>   1
Atom   5C    basis set group =>   1
Atom   6O    basis set group =>   2
Atom   7H    basis set group =>   3
Atom   8H    basis set group =>   3
Atom   9H    basis set group =>   3
Atom  10H    basis set group =>   3
Atom  11H    basis set group =>   3
Atom  12C    basis set group =>   1
Atom  13H    basis set group =>   3
Atom  14H    basis set group =>   3
Atom  15H    basis set group =>   3
---------------------------------
AUXILIARY/J BASIS SET INFORMATION
---------------------------------
There are 3 groups of distinct atoms

 Group   1 Type C   : 8s3p3d contracted to 6s3p3d pattern {311111/111/111}
 Group   2 Type O   : 8s3p3d contracted to 6s3p3d pattern {311111/111/111}
 Group   3 Type H   : 5s2p1d contracted to 3s1p1d pattern {311/2/1}

Atom   0C    basis set group =>   1
Atom   1C    basis set group =>   1
Atom   2C    basis set group =>   1
Atom   3C    basis set group =>   1
Atom   4C    basis set group =>   1
Atom   5C    basis set group =>   1
Atom   6O    basis set group =>   2
Atom   7H    basis set group =>   3
Atom   8H    basis set group =>   3
Atom   9H    basis set group =>   3
Atom  10H    basis set group =>   3
Atom  11H    basis set group =>   3
Atom  12C    basis set group =>   1
Atom  13H    basis set group =>   3
Atom  14H    basis set group =>   3
Atom  15H    basis set group =>   3
------------------------------------------------------------------------------
                           ORCA GTO INTEGRAL CALCULATION
                           -- RI-GTO INTEGRALS CHOSEN --
------------------------------------------------------------------------------
------------------------------------------------------------------------------
                   ___                                                        
                  /   \      - P O W E R E D   B Y -                         
                 /     \                                                     
                 |  |  |   _    _      __       _____    __    __             
                 |  |  |  | |  | |    /  \     |  _  \  |  |  /  |          
                  \  \/   | |  | |   /    \    | | | |  |  | /  /          
                 / \  \   | |__| |  /  /\  \   | |_| |  |  |/  /          
                |  |  |   |  __  | /  /__\  \  |    /   |      \           
                |  |  |   | |  | | |   __   |  |    \   |  |\   \          
                \     /   | |  | | |  |  |  |  | |\  \  |  | \   \       
                 \___/    |_|  |_| |__|  |__|  |_| \__\ |__|  \__/        
                                                                              
                      - O R C A' S   B I G   F R I E N D -                    
                                      &                                       
                       - I N T E G R A L  F E E D E R -                       
                                                                              
 v1 FN, 2020, v2 2021                                                         
------------------------------------------------------------------------------


Reading SHARK input file ORCA.SHARKINP.tmp ... ok
----------------------
SHARK INTEGRAL PACKAGE
----------------------

Number of atoms                             ...     16
Number of basis functions                   ...    197
Number of shells                            ...     97
Maximum angular momentum                    ...      2
Integral batch strategy                     ... SHARK/LIBINT Hybrid
RI-J (if used) integral strategy            ... SPLIT-RIJ (Revised 2003 algorithm where possible)
Printlevel                                  ...      1
Contraction scheme used                     ... SEGMENTED contraction
Coulomb Range Separation                    ... NOT USED
Exchange Range Separation                   ... NOT USED
Finite Nucleus Model                        ... NOT USED
Auxiliary Coulomb fitting basis             ... AVAILABLE
   # of basis functions in Aux-J            ...    328
   # of shells in Aux-J                     ...    136
   Maximum angular momentum in Aux-J        ...      2
Auxiliary J/K fitting basis                 ... NOT available
Auxiliary Correlation fitting basis         ... NOT available
Auxiliary 'external' fitting basis          ... NOT available
Integral threshold                          ...     2.500000e-11
Primitive cut-off                           ...     2.500000e-12
Primitive pair pre-selection threshold      ...     2.500000e-12

Calculating pre-screening integrals         ... done (  0.0 sec) Dimension = 97
Organizing shell pair data                  ... done (  0.0 sec)
Shell pair information
Total number of shell pairs                 ...      4753
Shell pairs after pre-screening             ...      4330
Total number of primitive shell pairs       ...     17405
Primitive shell pairs kept                  ...     11384
          la=0 lb=0:   1408 shell pairs
          la=1 lb=0:   1640 shell pairs
          la=1 lb=1:    496 shell pairs
          la=2 lb=0:    470 shell pairs
          la=2 lb=1:    272 shell pairs
          la=2 lb=2:     44 shell pairs

Calculating one electron integrals          ... done (  0.0 sec)
Calculating RI/J V-Matrix + Cholesky decomp.... done (  0.0 sec)
Calculating Nuclear repulsion               ... done (  0.0 sec) ENN=    343.904220087690 Eh

SHARK setup successfully completed in   0.1 seconds

Maximum memory used throughout the entire GTOINT-calculation: 28.9 MB
-------------------------------------------------------------------------------
                                 ORCA SCF
-------------------------------------------------------------------------------

------------
SCF SETTINGS
------------
Hamiltonian:
 Density Functional     Method          .... DFT(GTOs)
  Functional kind                       .... Exchange
  Functional name                       .... Re-regularized SCAN exchange by Furness et al
  Functional family                     .... MGGA
  Functional refs                              
    [ 0] J. W. Furness, A. D. Kaplan, J. Ning, J. P. Perdew, and J. Sun, J. Phys. Chem. Lett. 11, 8208 (2020)
    [ 1] J. W. Furness, A. D. Kaplan, J. Ning, J. P. Perdew, and J. Sun, J. Phys. Chem. Lett. 11, 9248 (2020)
  Functional external parameters         .... 8
 Parameter  0 :         c1 parameter
 Parameter  1 :         c2 parameter
 Parameter  2 :          d parameter
 Parameter  3 :         k1 parameter
 Parameter  4 :       taur parameter
 Parameter  5 :     alphar parameter
 Parameter  6 :        eta parameter
 Parameter  7 :        dp2 parameter
  Functional kind                       .... Correlation
  Functional name                       .... Re-regularized SCAN correlation by Furness et al
  Functional family                     .... MGGA
  Functional refs                              
    [ 0] J. W. Furness, A. D. Kaplan, J. Ning, J. P. Perdew, and J. Sun, J. Phys. Chem. Lett. 11, 8208 (2020)
    [ 1] J. W. Furness, A. D. Kaplan, J. Ning, J. P. Perdew, and J. Sun, J. Phys. Chem. Lett. 11, 9248 (2020)
  Functional external parameters         .... 0
 Gradients option       PostSCFGGA      .... off
   Density functional embedding theory  .... OFF
 RI-approximation to the Coulomb term is turned on
   Number of AuxJ basis functions       .... 328


General Settings:
 Integral files         IntName         .... ORCA
 Hartree-Fock type      HFTyp           .... RHF
 Total Charge           Charge          ....    0
 Multiplicity           Mult            ....    1
 Number of Electrons    NEL             ....   58
 Basis Dimension        Dim             ....  197
 Nuclear Repulsion      ENuc            ....    343.9042200877 Eh

Convergence Acceleration:
 DIIS                   CNVDIIS         .... on
   Start iteration      DIISMaxIt       ....    12
   Startup error        DIISStart       ....  0.200000
   # of expansion vecs  DIISMaxEq       ....     5
   Bias factor          DIISBfac        ....   1.050
   Max. coefficient     DIISMaxC        ....  10.000
 Trust-Rad. Augm. Hess. CNVTRAH         .... auto
   Auto Start mean grad. ratio tolernc. ....  1.125000
   Auto Start start iteration           ....    20
   Auto Start num. interpolation iter.  ....    10
   Max. Number of Micro iterations      ....    16
   Max. Number of Macro iterations      .... Maxiter - #DIIS iter
   Number of Davidson start vectors     ....     2
   Converg. threshold I  (grad. norm)   ....   1.000e-05
   Converg. threshold II (energy diff.) ....   1.000e-08
   Grad. Scal. Fac. for Micro threshold ....   0.100
   Minimum threshold for Micro iter.    ....   0.010
   NR start threshold (gradient norm)   ....   0.001
   Initial trust radius                 ....   0.400
   Minimum AH scaling param. (alpha)    ....   1.000
   Maximum AH scaling param. (alpha)    .... 1000.000
   Orbital update algorithm             .... Taylor
   White noise on init. David. guess    .... on
   Maximum white noise                  ....   0.010
   Quad. conv. algorithm                .... NR
   COSX micro iterations for RIJONX calc.... off
 SOSCF                  CNVSOSCF        .... on
   Start iteration      SOSCFMaxIt      ....   150
   Startup grad/error   SOSCFStart      ....  0.003300
 Level Shifting         CNVShift        .... on
   Level shift para.    LevelShift      ....    0.2500
   Turn off err/grad.   ShiftErr        ....    0.0010
 Zerner damping         CNVZerner       .... off
 Static damping         CNVDamp         .... on
   Fraction old density DampFac         ....    0.7000
   Max. Damping (<1)    DampMax         ....    0.9800
   Min. Damping (>=0)   DampMin         ....    0.0000
   Turn off err/grad.   DampErr         ....    0.1000
 Fernandez-Rico         CNVRico         .... off

SCF Procedure:
 Maximum # iterations   MaxIter         ....   125
 SCF integral mode      SCFMode         .... Direct
   Integral package                     .... SHARK and LIBINT hybrid scheme
 Reset frequency        DirectResetFreq ....    20
 Integral Threshold     Thresh          ....  2.500e-11 Eh
 Primitive CutOff       TCut            ....  2.500e-12 Eh

Convergence Tolerance:
 Convergence Check Mode ConvCheckMode   .... Total+1el-Energy
 Convergence forced     ConvForced      .... 0
 Energy Change          TolE            ....  1.000e-08 Eh
 1-El. energy change                    ....  1.000e-05 Eh
 Orbital Gradient       TolG            ....  1.000e-05
 Orbital Rotation angle TolX            ....  1.000e-05
 DIIS Error             TolErr          ....  5.000e-07


Diagonalization of the overlap matrix:
Smallest eigenvalue                        ... 3.651e-05
Time for diagonalization                   ...    0.003 sec
Threshold for overlap eigenvalues          ... 1.000e-08
Number of eigenvalues below threshold      ... 0
Time for construction of square roots      ...    0.001 sec
Total time needed                          ...    0.004 sec

Time for model grid setup =    0.119 sec

------------------------------
INITIAL GUESS: MODEL POTENTIAL
------------------------------
Loading Hartree-Fock densities                     ... done
Calculating cut-offs                               ... done
Initializing the effective Hamiltonian             ... done
Setting up the integral package (SHARK)            ... done
Starting the Coulomb interaction                   ... done (   0.1 sec)
Reading the grid                                   ... done
Mapping shells                                     ... done
Starting the XC term evaluation                    ... done (   0.2 sec)
  promolecular density results
     # of electrons  =     57.996158777
     EX              =    -46.238818604
     EC              =     -1.904901579
     EX+EC           =    -48.143720183
Transforming the Hamiltonian                       ... done (   0.0 sec)
Diagonalizing the Hamiltonian                      ... done (   0.0 sec)
Back transforming the eigenvectors                 ... done (   0.0 sec)
Now organizing SCF variables                       ... done
                      ------------------
                      INITIAL GUESS DONE (   0.4 sec)
                      ------------------
-------------------
DFT GRID GENERATION
-------------------

General Integration Accuracy     IntAcc      ... 4.388
Radial Grid Type                 RadialGrid  ... OptM3 with GC (2021)
Angular Grid (max. ang.)         AngularGrid ... 4 (Lebedev-302)
Angular grid pruning method      GridPruning ... 4 (adaptive)
Weight generation scheme         WeightScheme... Becke
Basis function cutoff            BFCut       ... 1.0000e-11
Integration weight cutoff        WCut        ... 1.0000e-14
Angular grids for H and He will be reduced by one unit
Partially contracted basis set               ... off
Rotationally invariant grid construction     ... off

Total number of grid points                  ...    74245
Total number of batches                      ...     1167
Average number of points per batch           ...       63
Average number of grid points per atom       ...     4640
Time for grid setup =    0.529 sec


--------------------
CPCM SOLVATION MODEL
--------------------
CPCM parameters:
  Epsilon                                         ...      36.6000
  Refrac                                          ...       1.3440
  Rsolv                                           ...       1.3000
  Surface type                                    ... GAUSSIAN VDW
  Epsilon function type                           ...         CPCM
Radii:
 Radius for C  used is    3.8550 Bohr (=   2.0400 Ang.)
 Radius for O  used is    3.4469 Bohr (=   1.8240 Ang.)
 Radius for H  used is    2.4944 Bohr (=   1.3200 Ang.)
Calculating surface                               ...        done! (  0.0s)
GEPOL surface points                              ...          924
GEPOL Volume                                      ...     994.5769
GEPOL Surface-area                                ...     566.2162
Calculating surface distance matrix               ...        done! (  0.0s)
Performing Cholesky decomposition & store         ...        done! (  0.0s)
Overall time for CPCM initialization              ...                 0.0s
--------------
SCF ITERATIONS
--------------
ITER       Energy         Delta-E        Max-DP      RMS-DP      [F,P]     Damp
               ***  Starting incremental Fock matrix formation  ***
  0   -346.5266237054   0.000000000000 0.03925264  0.00152901  0.1605179 0.7000
  1   -346.5980575573  -0.071433851892 0.04203019  0.00127205  0.0723509 0.7000
                               ***Turning on DIIS***
  2   -346.6283370215  -0.030279464195 0.08288849  0.00240028  0.0315245 0.0000
  3   -346.6709758924  -0.042638870896 0.04569759  0.00091712  0.0439034 0.0000
  4   -346.6831674764  -0.012191584011 0.01787637  0.00037128  0.0073620 0.0000
  5   -346.6836609332  -0.000493456769 0.00625513  0.00017707  0.0049702 0.0000
                      *** Initiating the SOSCF procedure ***
                           *** Shutting down DIIS ***
                      *** Re-Reading the Fockian *** 
                      *** Removing any level shift *** 
ITER      Energy       Delta-E        Grad      Rot      Max-DP    RMS-DP
  6   -346.68371220  -0.0000512663  0.000391  0.000391  0.002312  0.000070
               *** Restarting incremental Fock matrix formation ***
  7   -346.68371648  -0.0000042835  0.000104  0.000517  0.002218  0.000051
  8   -346.68371530   0.0000011800  0.000393  0.000733  0.000570  0.000012
  9   -346.68371734  -0.0000020346  0.000025  0.000112  0.000154  0.000004
 10   -346.68371733   0.0000000028  0.000023  0.000030  0.000027  0.000001
 11   -346.68371735  -0.0000000182  0.000004  0.000023  0.000034  0.000001
                  ***Gradient check signals convergence***
              ***Rediagonalizing the Fockian in SOSCF/NRSCF***

               *****************************************************
               *                     SUCCESS                       *
               *           SCF CONVERGED AFTER  12 CYCLES          *
               *****************************************************


----------------
TOTAL SCF ENERGY
----------------

Total Energy       :         -346.68371735 Eh           -9433.74355 eV

Components:
Nuclear Repulsion  :          343.90422009 Eh            9358.10959 eV
Electronic Energy  :         -690.58793744 Eh          -18791.85314 eV
One Electron Energy:        -1150.46285483 Eh          -31305.68583 eV
Two Electron Energy:          459.87491739 Eh           12513.83269 eV
CPCM Dielectric    :           -0.00890560 Eh              -0.24233 eV

Virial components:
Potential Energy   :         -691.41562284 Eh          -18814.37560 eV
Kinetic Energy     :          344.73190549 Eh            9380.63205 eV
Virial Ratio       :            2.00566183


DFT components:
N(Alpha)           :       29.000023377412 electrons
N(Beta)            :       29.000023377412 electrons
N(Total)           :       58.000046754823 electrons
E(X)               :      -47.446175940923 Eh       
E(C)               :       -1.857165349005 Eh       
E(XC)              :      -49.303341289928 Eh       
DFET-embed. en.    :        0.000000000000 Eh       
CPCM Solvation Model Properties:
Surface-charge          :           -0.02304477
Charge-correction       :           -0.00007558 Eh              -0.00206 eV
Free-energy (cav+disp)  :  This term is not implemented in the current solvation scheme

---------------
SCF CONVERGENCE
---------------

  Last Energy change         ...   -6.3329e-10  Tolerance :   1.0000e-08
  Last MAX-Density change    ...    1.4398e-05  Tolerance :   1.0000e-07
  Last RMS-Density change    ...    4.1653e-07  Tolerance :   5.0000e-09
  Last Orbital Gradient      ...    2.3136e-06  Tolerance :   1.0000e-05
  Last Orbital Rotation      ...    5.7974e-06  Tolerance :   1.0000e-05

             **** THE GBW FILE WAS UPDATED (ORCA.gbw) ****
             **** DENSITY ORCA.scfp WAS UPDATED ****
             **** ENERGY FILE WAS UPDATED (ORCA.en.tmp) ****
             **** THE GBW FILE WAS UPDATED (ORCA.gbw) ****
             **** DENSITY ORCA.scfp WAS UPDATED ****
----------------
ORBITAL ENERGIES
----------------

  NO   OCC          E(Eh)            E(eV) 
   0   2.0000     -18.975462      -516.3486 
   1   2.0000     -10.094170      -274.6763 
   2   2.0000     -10.093822      -274.6669 
   3   2.0000     -10.043612      -273.3006 
   4   2.0000     -10.042588      -273.2727 
   5   2.0000     -10.041675      -273.2479 
   6   2.0000     -10.039279      -273.1827 
   7   2.0000     -10.038707      -273.1671 
   8   2.0000      -1.008241       -27.4356 
   9   2.0000      -0.819980       -22.3128 
  10   2.0000      -0.719193       -19.5702 
  11   2.0000      -0.710013       -19.3204 
  12   2.0000      -0.646544       -17.5934 
  13   2.0000      -0.579335       -15.7645 
  14   2.0000      -0.558436       -15.1958 
  15   2.0000      -0.490283       -13.3413 
  16   2.0000      -0.447665       -12.1816 
  17   2.0000      -0.439720       -11.9654 
  18   2.0000      -0.421456       -11.4684 
  19   2.0000      -0.405737       -11.0407 
  20   2.0000      -0.393804       -10.7159 
  21   2.0000      -0.383477       -10.4349 
  22   2.0000      -0.345539        -9.4026 
  23   2.0000      -0.336041        -9.1441 
  24   2.0000      -0.321787        -8.7563 
  25   2.0000      -0.316125        -8.6022 
  26   2.0000      -0.246239        -6.7005 
  27   2.0000      -0.240683        -6.5493 
  28   2.0000      -0.228281        -6.2118 
  29   0.0000      -0.039429        -1.0729 
  30   0.0000      -0.035026        -0.9531 
  31   0.0000       0.055111         1.4996 
  32   0.0000       0.084340         2.2950 
  33   0.0000       0.105606         2.8737 
  34   0.0000       0.112531         3.0621 
  35   0.0000       0.126964         3.4549 
  36   0.0000       0.130420         3.5489 
  37   0.0000       0.136891         3.7250 
  38   0.0000       0.147441         4.0121 
  39   0.0000       0.162270         4.4156 
  40   0.0000       0.167643         4.5618 
  41   0.0000       0.175356         4.7717 
  42   0.0000       0.187319         5.0972 
  43   0.0000       0.201753         5.4900 
  44   0.0000       0.207478         5.6458 
  45   0.0000       0.217667         5.9230 
  46   0.0000       0.223151         6.0722 
  47   0.0000       0.236270         6.4292 
  48   0.0000       0.246791         6.7155 
  49   0.0000       0.263814         7.1787 
  50   0.0000       0.264688         7.2025 
  51   0.0000       0.272116         7.4046 
  52   0.0000       0.290435         7.9031 
  53   0.0000       0.292075         7.9478 
  54   0.0000       0.316178         8.6036 
  55   0.0000       0.324625         8.8335 
  56   0.0000       0.328998         8.9525 
  57   0.0000       0.337811         9.1923 
  58   0.0000       0.348729         9.4894 
  59   0.0000       0.364878         9.9288 
  60   0.0000       0.390544        10.6272 
  61   0.0000       0.394978        10.7479 
  62   0.0000       0.418598        11.3906 
  63   0.0000       0.421602        11.4724 
  64   0.0000       0.451809        12.2944 
  65   0.0000       0.460244        12.5239 
  66   0.0000       0.494441        13.4544 
  67   0.0000       0.500347        13.6151 
  68   0.0000       0.510204        13.8834 
  69   0.0000       0.543522        14.7900 
  70   0.0000       0.547878        14.9085 
  71   0.0000       0.555943        15.1280 
  72   0.0000       0.571748        15.5580 
  73   0.0000       0.574396        15.6301 
  74   0.0000       0.602825        16.4037 
  75   0.0000       0.633834        17.2475 
  76   0.0000       0.649208        17.6658 
  77   0.0000       0.664919        18.0934 
  78   0.0000       0.669766        18.2252 
  79   0.0000       0.709964        19.3191 
  80   0.0000       0.747672        20.3452 
  81   0.0000       0.796450        21.6725 
  82   0.0000       0.925574        25.1862 
  83   0.0000       0.934731        25.4353 
  84   0.0000       0.987524        26.8719 
  85   0.0000       1.031206        28.0605 
  86   0.0000       1.053923        28.6787 
  87   0.0000       1.071462        29.1560 
  88   0.0000       1.091136        29.6913 
  89   0.0000       1.113933        30.3117 
  90   0.0000       1.125689        30.6316 
  91   0.0000       1.152884        31.3716 
  92   0.0000       1.184000        32.2183 
  93   0.0000       1.242163        33.8010 
  94   0.0000       1.275819        34.7168 
  95   0.0000       1.280250        34.8374 
  96   0.0000       1.317052        35.8388 
  97   0.0000       1.326299        36.0904 
  98   0.0000       1.331232        36.2247 
  99   0.0000       1.340457        36.4757 
 100   0.0000       1.355969        36.8978 
 101   0.0000       1.366752        37.1912 
 102   0.0000       1.373577        37.3769 
 103   0.0000       1.406241        38.2658 
 104   0.0000       1.440181        39.1893 
 105   0.0000       1.445784        39.3418 
 106   0.0000       1.447918        39.3998 
 107   0.0000       1.471377        40.0382 
 108   0.0000       1.476689        40.1827 
 109   0.0000       1.482572        40.3428 
 110   0.0000       1.492167        40.6039 
 111   0.0000       1.506582        40.9962 
 112   0.0000       1.510303        41.0974 
 113   0.0000       1.528406        41.5901 
 114   0.0000       1.537143        41.8278 
 115   0.0000       1.577507        42.9262 
 116   0.0000       1.585025        43.1307 
 117   0.0000       1.591122        43.2966 
 118   0.0000       1.598109        43.4868 
 119   0.0000       1.603055        43.6213 
 120   0.0000       1.648985        44.8712 
 121   0.0000       1.728575        47.0369 
 122   0.0000       1.737638        47.2835 
 123   0.0000       1.754555        47.7439 
 124   0.0000       1.770928        48.1894 
 125   0.0000       1.850269        50.3484 
 126   0.0000       1.878677        51.1214 
 127   0.0000       1.954151        53.1752 
 128   0.0000       1.985058        54.0162 
 129   0.0000       2.008466        54.6531 
 130   0.0000       2.039980        55.5107 
 131   0.0000       2.059850        56.0514 
 132   0.0000       2.072169        56.3866 
 133   0.0000       2.093179        56.9583 
 134   0.0000       2.102438        57.2102 
 135   0.0000       2.124390        57.8076 
 136   0.0000       2.165312        58.9211 
 137   0.0000       2.171936        59.1014 
 138   0.0000       2.212294        60.1996 
 139   0.0000       2.214845        60.2690 
 140   0.0000       2.235317        60.8261 
 141   0.0000       2.250237        61.2321 
 142   0.0000       2.267142        61.6921 
 143   0.0000       2.272706        61.8435 
 144   0.0000       2.276187        61.9382 
 145   0.0000       2.282577        62.1121 
 146   0.0000       2.292173        62.3732 
 147   0.0000       2.302362        62.6504 
 148   0.0000       2.334571        63.5269 
 149   0.0000       2.339867        63.6710 
 150   0.0000       2.356815        64.1322 
 151   0.0000       2.391548        65.0773 
 152   0.0000       2.407965        65.5241 
 153   0.0000       2.436012        66.2873 
 154   0.0000       2.515956        68.4626 
 155   0.0000       2.524632        68.6987 
 156   0.0000       2.563893        69.7671 
 157   0.0000       2.617951        71.2381 
 158   0.0000       2.649506        72.0967 
 159   0.0000       2.678488        72.8854 
 160   0.0000       2.697008        73.3893 
 161   0.0000       2.726801        74.2000 
 162   0.0000       2.751349        74.8680 
 163   0.0000       2.790708        75.9390 
 164   0.0000       2.849302        77.5335 
 165   0.0000       2.862408        77.8901 
 166   0.0000       2.916931        79.3737 
 167   0.0000       2.955478        80.4226 
 168   0.0000       2.978295        81.0435 
 169   0.0000       3.043841        82.8271 
 170   0.0000       3.057417        83.1965 
 171   0.0000       3.101647        84.4001 
 172   0.0000       3.137939        85.3877 
 173   0.0000       3.139427        85.4282 
 174   0.0000       3.185470        86.6810 
 175   0.0000       3.200989        87.1033 
 176   0.0000       3.224596        87.7457 
 177   0.0000       3.253479        88.5317 
 178   0.0000       3.328419        90.5709 
 179   0.0000       3.352669        91.2308 
 180   0.0000       3.401906        92.5706 
 181   0.0000       3.470909        94.4482 
 182   0.0000       3.475284        94.5673 
 183   0.0000       3.480854        94.7189 
 184   0.0000       3.592332        97.7523 
 185   0.0000       3.599650        97.9515 
 186   0.0000       3.872924       105.3876 
 187   0.0000       3.968584       107.9906 
 188   0.0000       4.264442       116.0414 
 189   0.0000      21.403441       582.4172 
 190   0.0000      21.814611       593.6057 
 191   0.0000      21.915982       596.3642 
 192   0.0000      21.956297       597.4612 
 193   0.0000      22.147292       602.6584 
 194   0.0000      22.161916       603.0564 
 195   0.0000      22.296371       606.7151 
 196   0.0000      43.728288      1189.9072 
-------
TIMINGS
-------

Total SCF time: 0 days 0 hours 0 min 24 sec 

Total time                  ....      24.213 sec
Sum of individual times     ....      24.065 sec  ( 99.4%)

Fock matrix formation       ....      23.106 sec  ( 95.4%)
  Split-RI-J                ....       1.597 sec  (  6.9% of F)
  XC integration            ....      14.892 sec  ( 64.5% of F)
    Basis function eval.    ....       2.262 sec  ( 15.2% of XC)
    Density eval.           ....       3.003 sec  ( 20.2% of XC)
    XC-Functional eval.     ....       1.504 sec  ( 10.1% of XC)
    XC-Potential eval.      ....       7.887 sec  ( 53.0% of XC)
Diagonalization             ....       0.024 sec  (  0.1%)
Density matrix formation    ....       0.004 sec  (  0.0%)
Population analysis         ....       0.000 sec  (  0.0%)
Initial guess               ....       0.267 sec  (  1.1%)
Orbital Transformation      ....       0.000 sec  (  0.0%)
Orbital Orthonormalization  ....       0.000 sec  (  0.0%)
DIIS solution               ....       0.007 sec  (  0.0%)
SOSCF solution              ....       0.009 sec  (  0.0%)
Grid generation             ....       0.648 sec  (  2.7%)

Maximum memory used throughout the entire SCF-calculation: 52.3 MB


-------------------------------------------------------------------------------
                          DFT DISPERSION CORRECTION                            
                                                                               
                                 DFTD4 V2.5                                    
-------------------------------------------------------------------------------
The R2SCAN3C composite method is recognized
Using three-body term ABC
Active option DFTDOPT                   ...         5   

Starting D4
-------------------------   ----------------
Dispersion correction           -0.004860555
-------------------------   ----------------

------------------   -----------------
gCP correction             0.005967186
------------------   -----------------

-------------------------   --------------------
FINAL SINGLE POINT ENERGY      -346.682610722439
-------------------------   --------------------

------------------------------------------------------------------------------
                         ORCA SCF GRADIENT CALCULATION
------------------------------------------------------------------------------

Gradient of the Kohn-Sham DFT energy:
Kohn-Sham wavefunction type      ... RKS
Hartree-Fock exchange scaling    ...    0.000
Number of operators              ...    1
Number of atoms                  ...   16
Basis set dimensions             ...  197
Integral neglect threshold       ... 2.5e-11
Integral primitive cutoff        ... 2.5e-12
SHARK Integral package           ... ON

Nuc. rep. gradient       (SHARK) ... done (  0.0 sec)
HCore & Overlap gradient (SHARK) ... done (  0.1 sec)
RI-J gradient            (SHARK) ... done (  0.6 sec)
Exchange-correlation gradient    ... done
Dispersion correction            ... Starting D4


------------------- 
Dispersion Gradient 
------------------- 
   1  :    0.000044557    0.000000241   -0.000002083
   2  :   -0.000008799    0.000064176   -0.000019724
   3  :   -0.000067238    0.000059628   -0.000013806
   4  :   -0.000085027    0.000000527   -0.000008837
   5  :   -0.000067648   -0.000058156   -0.000014344
   6  :   -0.000007411   -0.000061341   -0.000018932
   7  :    0.000081279   -0.000002340    0.000010436
   8  :    0.000005954    0.000043120   -0.000009163
   9  :   -0.000024597    0.000033419   -0.000001883
  10  :   -0.000037640   -0.000000106   -0.000000307
  11  :   -0.000025317   -0.000033762   -0.000002253
  12  :    0.000006879   -0.000040942   -0.000009180
  13  :    0.000075455   -0.000002065    0.000041517
  14  :    0.000042195   -0.000005025    0.000016997
  15  :    0.000020273    0.000001244    0.000013551
  16  :    0.000047086    0.000001382    0.000018010

  |G| =    0.000259302

done
gCP correction                   ... done

------------------
CARTESIAN GRADIENT
------------------

   1   C   :    0.008709519    0.010395827    0.000711624
   2   C   :   -0.009192254   -0.000645271   -0.000026990
   3   C   :    0.004612181   -0.005194151    0.000600336
   4   C   :    0.007507723    0.000391858   -0.000253442
   5   C   :    0.005668314    0.008136000    0.000546234
   6   C   :   -0.000145107   -0.004772390    0.000344652
   7   O   :   -0.016267614   -0.006351383   -0.028626458
   8   H   :    0.002464321    0.007541167   -0.000250256
   9   H   :   -0.004533821    0.007508044    0.000172228
  10   H   :   -0.008533100   -0.000058867   -0.000069961
  11   H   :   -0.003979646   -0.007665549    0.000188269
  12   H   :    0.003790183   -0.007412374   -0.000222909
  13   C   :   -0.002217489   -0.001063962   -0.003797742
  14   H   :   -0.003991191    0.022033072    0.011201403
  15   H   :    0.027764505   -0.005041204    0.005858230
  16   H   :   -0.011656524   -0.017800816    0.013624783

Difference to translation invariance:
           :    0.0000000000   -0.0000000000   -0.0000000000

Difference to rotation invariance:
           :   -0.0000554404   -0.0001697780    0.0000487668

Norm of the cartesian gradient     ...    0.0639813730
RMS gradient                       ...    0.0092349157
MAX gradient                       ...    0.0286264582

-------
TIMINGS
-------

Total SCF gradient time            ...        5.248 sec

One electron gradient       ....       0.113 sec  (  2.2%)
RI-J Coulomb gradient       ....       0.569 sec  ( 10.8%)
XC gradient                 ....       3.656 sec  ( 69.7%)
CPCM gradient               ....       0.468 sec  (  8.9%)
   A-Matrix (El+Nuc)        ....       0.028 sec  (  0.5%)
   Potential                ....       0.441 sec  (  8.4%)

Maximum memory used throughout the entire SCFGRAD-calculation: 51.4 MB
------------------------------------------------------------------------------
                         ORCA GEOMETRY RELAXATION STEP
------------------------------------------------------------------------------

Reading the OPT-File                    .... done
Getting information on internals        .... done
Copying old internal coords+grads       .... done
Making the new internal coordinates     .... (new redundants).... done
Validating the new internal coordinates .... (new redundants).... done
Calculating the B-matrix                .... done
Calculating the G,G- and P matrices     .... done
Transforming gradient to internals      .... done
Projecting the internal gradient        .... done
Number of atoms                         ....  16
Number of internal coordinates          ....  70
Current Energy                          ....  -346.682610722 Eh
Current gradient norm                   ....     0.063981373 Eh/bohr
Maximum allowed component of the step   ....  0.300
Current trust radius                    ....  0.300
Evaluating the initial hessian          ....  (Almloef) done
Projecting the Hessian                  .... done
Forming the augmented Hessian           .... done
Diagonalizing the augmented Hessian     .... done
Last element of RFO vector              ....  0.980689753
Lowest eigenvalues of augmented Hessian:
 -0.011604043  0.011136556  0.024507994  0.024784900  0.025175886
Length of the computed step             ....  0.199420821
The final length of the internal step   ....  0.199420821
Converting the step to cartesian space:
 Initial RMS(Int)=    0.0238353471
Transforming coordinates:
 Iter   0:  RMS(Cart)=    0.0566478766 RMS(Int)=    1.8373617242
 Iter   1:  RMS(Cart)=    0.0020021609 RMS(Int)=    0.7509373614
 Iter   2:  RMS(Cart)=    0.0000805362 RMS(Int)=    0.0000570695
 Iter   3:  RMS(Cart)=    0.0000053060 RMS(Int)=    0.0000028157
 Iter   4:  RMS(Cart)=    0.0000003331 RMS(Int)=    0.0000002707
 Iter   5:  RMS(Cart)=    0.0000000179 RMS(Int)=    0.0000000109
done
Storing new coordinates                 .... done

                                .--------------------.
          ----------------------|Geometry convergence|-------------------------
          Item                value                   Tolerance       Converged
          ---------------------------------------------------------------------
          RMS gradient        0.0075216895            0.0001000000      NO
          MAX gradient        0.0286649024            0.0003000000      NO
          RMS step            0.0238353471            0.0020000000      NO
          MAX step            0.0907115568            0.0040000000      NO
          ........................................................
          Max(Bonds)      0.0480      Max(Angles)    1.76
          Max(Dihed)        1.97      Max(Improp)    0.00
          ---------------------------------------------------------------------

The optimization has not yet converged - more geometry cycles are needed


    ---------------------------------------------------------------------------
                         Redundant Internal Coordinates
                            (Angstroem and degrees)

        Definition                    Value    dE/dq     Step     New-Value
    ----------------------------------------------------------------------------
     1. B(C   1,C   0)                1.4017  0.009193 -0.0081    1.3936   
     2. B(C   2,C   1)                1.3938 -0.000376  0.0003    1.3941   
     3. B(C   3,C   2)                1.3942  0.001817 -0.0014    1.3928   
     4. B(C   4,C   3)                1.3967  0.002907 -0.0023    1.3943   
     5. B(C   5,C   4)                1.3913 -0.000348  0.0003    1.3916   
     6. B(C   5,C   0)                1.4052  0.006010 -0.0054    1.3998   
     7. B(O   6,C   0)                1.3767 -0.005961  0.0053    1.3819   
     8. B(H   7,C   1)                1.0985  0.007769 -0.0114    1.0871   
     9. B(H   8,C   2)                1.1002  0.008771 -0.0129    1.0872   
    10. B(H   9,C   3)                1.0993  0.008534 -0.0126    1.0868   
    11. B(H  10,C   4)                1.1005  0.008630 -0.0128    1.0877   
    12. B(H  11,C   5)                1.0986  0.008303 -0.0122    1.0864   
    13. B(C  12,O   6)                1.5000  0.028665 -0.0394    1.4606   
    14. B(H  13,C  12)                1.1400  0.025026 -0.0425    1.0975   
    15. B(H  14,C  12)                1.1400  0.028238 -0.0480    1.0920   
    16. B(H  15,C  12)                1.1400  0.025247 -0.0429    1.0971   
    17. A(C   1,C   0,C   5)          120.97  0.001840   -0.29    120.68   
    18. A(C   1,C   0,O   6)          122.61  0.011369   -1.47    121.14   
    19. A(C   5,C   0,O   6)          116.42 -0.013209    1.76    118.18   
    20. A(C   0,C   1,C   2)          119.11 -0.001626    0.19    119.31   
    21. A(C   0,C   1,H   7)          120.34  0.002482   -0.36    119.98   
    22. A(C   2,C   1,H   7)          120.54 -0.000856    0.17    120.71   
    23. A(C   1,C   2,H   8)          119.58  0.000385   -0.06    119.52   
    24. A(C   3,C   2,H   8)          120.03  0.000134   -0.02    120.00   
    25. A(C   1,C   2,C   3)          120.39 -0.000519    0.09    120.48   
    26. A(C   4,C   3,H   9)          119.94 -0.000992    0.11    120.06   
    27. A(C   2,C   3,H   9)          120.02 -0.000989    0.11    120.13   
    28. A(C   2,C   3,C   4)          120.04  0.001982   -0.23    119.81   
    29. A(C   3,C   4,H  10)          119.87 -0.000598    0.06    119.94   
    30. A(C   3,C   4,C   5)          120.60  0.001935   -0.24    120.36   
    31. A(C   5,C   4,H  10)          119.53 -0.001338    0.18    119.70   
    32. A(C   0,C   5,C   4)          118.88 -0.003612    0.48    119.36   
    33. A(C   4,C   5,H  11)          121.51  0.001180   -0.14    121.37   
    34. A(C   0,C   5,H  11)          119.61  0.002432   -0.34    119.27   
    35. A(C   0,O   6,C  12)          109.47 -0.009363    1.34    110.81   
    36. A(H  14,C  12,H  15)          109.47 -0.003182    0.49    109.97   
    37. A(H  13,C  12,H  15)          109.47 -0.001474    0.46    109.93   
    38. A(O   6,C  12,H  15)          109.48 -0.000432    0.09    109.56   
    39. A(H  13,C  12,H  14)          109.47 -0.003110    0.50    109.97   
    40. A(O   6,C  12,H  14)          109.47  0.009261   -1.75    107.72   
    41. A(O   6,C  12,H  13)          109.47 -0.001064    0.21    109.68   
    42. D(H   7,C   1,C   0,C   5)    180.00 -0.000188    0.29    180.29   
    43. D(H   7,C   1,C   0,O   6)      0.00  0.000852   -1.36     -1.36   
    44. D(C   2,C   1,C   0,C   5)      0.00  0.000038   -0.06     -0.06   
    45. D(C   2,C   1,C   0,O   6)    180.00  0.001077   -1.71    178.29   
    46. D(C   3,C   2,C   1,H   7)    180.00  0.000137   -0.22    179.78   
    47. D(H   8,C   2,C   1,C   0)    180.00 -0.000146    0.22    180.22   
    48. D(C   3,C   2,C   1,C   0)      0.00 -0.000089    0.13      0.13   
    49. D(H   8,C   2,C   1,H   7)      0.00  0.000080   -0.13     -0.13   
    50. D(H   9,C   3,C   2,H   8)      0.00  0.000057   -0.09     -0.09   
    51. D(H   9,C   3,C   2,C   1)    180.00 -0.000000    0.00    180.00   
    52. D(C   4,C   3,C   2,H   8)    180.00  0.000195   -0.30    179.70   
    53. D(C   4,C   3,C   2,C   1)      0.00  0.000137   -0.21     -0.21   
    54. D(H  10,C   4,C   3,C   2)    180.00 -0.000201    0.31    180.31   
    55. D(C   5,C   4,C   3,H   9)    180.00  0.000002   -0.00    180.00   
    56. D(C   5,C   4,C   3,C   2)      0.00 -0.000135    0.21      0.21   
    57. D(H  10,C   4,C   3,H   9)      0.00 -0.000063    0.10      0.10   
    58. D(H  11,C   5,C   4,H  10)      0.00 -0.000071    0.11      0.11   
    59. D(C   0,C   5,C   4,H  10)    180.00  0.000149   -0.23    179.77   
    60. D(C   0,C   5,C   4,C   3)      0.00  0.000083   -0.13     -0.13   
    61. D(H  11,C   5,C   0,O   6)      0.00 -0.000798    1.28      1.28   
    62. D(H  11,C   5,C   0,C   1)    180.00  0.000180   -0.28    179.72   
    63. D(H  11,C   5,C   4,C   3)    180.00 -0.000136    0.21    180.21   
    64. D(C   4,C   5,C   0,O   6)    180.00 -0.001013    1.61    181.61   
    65. D(C   4,C   5,C   0,C   1)      0.00 -0.000035    0.06      0.06   
    66. D(C  12,O   6,C   0,C   5)    -90.00  0.001067   -1.68    -91.67   
    67. D(C  12,O   6,C   0,C   1)     90.00  0.000072   -0.10     89.90   
    68. D(H  15,C  12,O   6,C   0)     52.03 -0.002038    1.97     54.00   
    69. D(H  14,C  12,O   6,C   0)    172.04 -0.000528    1.56    173.60   
    70. D(H  13,C  12,O   6,C   0)    -67.96  0.000683    1.23    -66.74   
    ----------------------------------------------------------------------------

         *************************************************************
         *                GEOMETRY OPTIMIZATION CYCLE   2            *
         *************************************************************
---------------------------------
CARTESIAN COORDINATES (ANGSTROEM)
---------------------------------
  C      0.217702    1.142160    0.045706
  C     -0.465239    2.356886    0.035050
  C     -1.858917    2.355970   -0.000121
  C     -2.564278    1.155214   -0.021514
  C     -1.872543   -0.055383   -0.012161
  C     -0.481434   -0.070370    0.022747
  O      1.598971    1.099012    0.045593
  H      0.089148    3.291935    0.048439
  H     -2.395078    3.301708   -0.012214
  H     -3.650683    1.161131   -0.048890
  H     -2.421305   -0.994279   -0.033902
  H      0.074170   -1.003950    0.027029
  C      2.118262    1.097279    1.410762
  H      1.897969    2.059169    1.891085
  H      3.198416    0.946873    1.355254
  H      1.655138    0.280946    1.978837

----------------------------
CARTESIAN COORDINATES (A.U.)
----------------------------
  NO LB      ZA    FRAG     MASS         X           Y           Z
   0 C     6.0000    0    12.011    0.411397    2.158369    0.086372
   1 C     6.0000    0    12.011   -0.879175    4.453869    0.066235
   2 C     6.0000    0    12.011   -3.512844    4.452137   -0.000229
   3 C     6.0000    0    12.011   -4.845784    2.183038   -0.040656
   4 C     6.0000    0    12.011   -3.538593   -0.104658   -0.022980
   5 C     6.0000    0    12.011   -0.909779   -0.132979    0.042985
   6 O     8.0000    0    15.999    3.021616    2.076832    0.086158
   7 H     1.0000    0     1.008    0.168465    6.220855    0.091536
   8 H     1.0000    0     1.008   -4.526041    6.239323   -0.023082
   9 H     1.0000    0     1.008   -6.898790    2.194220   -0.092389
  10 H     1.0000    0     1.008   -4.575603   -1.878916   -0.064065
  11 H     1.0000    0     1.008    0.140161   -1.897191    0.051078
  12 C     6.0000    0    12.011    4.002936    2.073556    2.665954
  13 H     1.0000    0     1.008    3.586641    3.891266    3.573632
  14 H     1.0000    0     1.008    6.044130    1.789330    2.561059
  15 H     1.0000    0     1.008    3.127758    0.530911    3.739461

--------------------------------
INTERNAL COORDINATES (ANGSTROEM)
--------------------------------
 C      0   0   0     0.000000000000     0.00000000     0.00000000
 C      1   0   0     1.393586241491     0.00000000     0.00000000
 C      2   1   0     1.394121510937   119.30930969     0.00000000
 C      3   2   1     1.392769273371   120.48004836     0.13868805
 C      4   3   2     1.394320427254   119.81359903   359.78794404
 C      5   4   3     1.391627048293   120.36078401     0.20599038
 O      1   2   3     1.381942145348   121.13363904   178.31796374
 H      2   1   3     1.087125076451   119.98124054   180.34445217
 H      3   2   1     1.087214570720   119.51837851   180.22310151
 H      4   3   2     1.086765323692   120.13039724   179.99873858
 H      5   4   3     1.087722244074   119.93488667   180.30838432
 H      6   5   4     1.086410265675   121.37087253   180.21538609
 C      7   1   2     1.460601004505   110.81307092    89.90694371
 H     13   7   1     1.097484664877   109.67335148   293.26444373
 H     13   7   1     1.091986687015   107.71803422   173.59641796
 H     13   7   1     1.097083572245   109.55860898    54.00245661

---------------------------
INTERNAL COORDINATES (A.U.)
---------------------------
 C      0   0   0     0.000000000000     0.00000000     0.00000000
 C      1   0   0     2.633496340418     0.00000000     0.00000000
 C      2   1   0     2.634507853079   119.30930969     0.00000000
 C      3   2   1     2.631952494412   120.48004836     0.13868805
 C      4   3   2     2.634883750442   119.81359903   359.78794404
 C      5   4   3     2.629794001832   120.36078401     0.20599038
 O      1   2   3     2.611492187631   121.13363904   178.31796374
 H      2   1   3     2.054368667811   119.98124054   180.34445217
 H      3   2   1     2.054537787469   119.51837851   180.22310151
 H      4   3   2     2.053688833620   120.13039724   179.99873858
 H      5   4   3     2.055497151074   119.93488667   180.30838432
 H      6   5   4     2.053017871207   121.37087253   180.21538609
 C      7   1   2     2.760135889444   110.81307092    89.90694371
 H     13   7   1     2.073945452795   109.67335148   293.26444373
 H     13   7   1     2.063555780346   107.71803422   173.59641796
 H     13   7   1     2.073187497568   109.55860898    54.00245661

------------------------------------------------------------------------------
                   ___                                                        
                  /   \      - P O W E R E D   B Y -                         
                 /     \                                                     
                 |  |  |   _    _      __       _____    __    __             
                 |  |  |  | |  | |    /  \     |  _  \  |  |  /  |          
                  \  \/   | |  | |   /    \    | | | |  |  | /  /          
                 / \  \   | |__| |  /  /\  \   | |_| |  |  |/  /          
                |  |  |   |  __  | /  /__\  \  |    /   |      \           
                |  |  |   | |  | | |   __   |  |    \   |  |\   \          
                \     /   | |  | | |  |  |  |  | |\  \  |  | \   \       
                 \___/    |_|  |_| |__|  |__|  |_| \__\ |__|  \__/        
                                                                              
                      - O R C A' S   B I G   F R I E N D -                    
                                      &                                       
                       - I N T E G R A L  F E E D E R -                       
                                                                              
 v1 FN, 2020, v2 2021                                                         
------------------------------------------------------------------------------


Reading SHARK input file ORCA.SHARKINP.tmp ... ok
----------------------
SHARK INTEGRAL PACKAGE
----------------------

Number of atoms                             ...     16
Number of basis functions                   ...    197
Number of shells                            ...     97
Maximum angular momentum                    ...      2
Integral batch strategy                     ... SHARK/LIBINT Hybrid
RI-J (if used) integral strategy            ... SPLIT-RIJ (Revised 2003 algorithm where possible)
Printlevel                                  ...      1
Contraction scheme used                     ... SEGMENTED contraction
Coulomb Range Separation                    ... NOT USED
Exchange Range Separation                   ... NOT USED
Finite Nucleus Model                        ... NOT USED
Auxiliary Coulomb fitting basis             ... AVAILABLE
   # of basis functions in Aux-J            ...    328
   # of shells in Aux-J                     ...    136
   Maximum angular momentum in Aux-J        ...      2
Auxiliary J/K fitting basis                 ... NOT available
Auxiliary Correlation fitting basis         ... NOT available
Auxiliary 'external' fitting basis          ... NOT available
Integral threshold                          ...     2.500000e-11
Primitive cut-off                           ...     2.500000e-12
Primitive pair pre-selection threshold      ...     2.500000e-12

Calculating pre-screening integrals         ... done (  0.0 sec) Dimension = 97
Organizing shell pair data                  ... done (  0.0 sec)
Shell pair information
Total number of shell pairs                 ...      4753
Shell pairs after pre-screening             ...      4331
Total number of primitive shell pairs       ...     17405
Primitive shell pairs kept                  ...     11404
          la=0 lb=0:   1412 shell pairs
          la=1 lb=0:   1636 shell pairs
          la=1 lb=1:    497 shell pairs
          la=2 lb=0:    470 shell pairs
          la=2 lb=1:    272 shell pairs
          la=2 lb=2:     44 shell pairs

Calculating one electron integrals          ... done (  0.0 sec)
Calculating RI/J V-Matrix + Cholesky decomp.... done (  0.0 sec)
Calculating Nuclear repulsion               ... done (  0.0 sec) ENN=    345.438490782242 Eh

SHARK setup successfully completed in   0.1 seconds

Maximum memory used throughout the entire GTOINT-calculation: 28.9 MB

Diagonalization of the overlap matrix:
Smallest eigenvalue                        ... 3.642e-05
Time for diagonalization                   ...    0.003 sec
Threshold for overlap eigenvalues          ... 1.000e-08
Number of eigenvalues below threshold      ... 0
Time for construction of square roots      ...    0.000 sec
Total time needed                          ...    0.004 sec

-------------------
DFT GRID GENERATION
-------------------

General Integration Accuracy     IntAcc      ... 4.388
Radial Grid Type                 RadialGrid  ... OptM3 with GC (2021)
Angular Grid (max. ang.)         AngularGrid ... 4 (Lebedev-302)
Angular grid pruning method      GridPruning ... 4 (adaptive)
Weight generation scheme         WeightScheme... Becke
Basis function cutoff            BFCut       ... 1.0000e-11
Integration weight cutoff        WCut        ... 1.0000e-14
Angular grids for H and He will be reduced by one unit
Partially contracted basis set               ... off
Rotationally invariant grid construction     ... off

Total number of grid points                  ...    74217
Total number of batches                      ...     1168
Average number of points per batch           ...       63
Average number of grid points per atom       ...     4639
Time for grid setup =    0.530 sec


--------------------
CPCM SOLVATION MODEL
--------------------
CPCM parameters:
  Epsilon                                         ...      36.6000
  Refrac                                          ...       1.3440
  Rsolv                                           ...       1.3000
  Surface type                                    ... GAUSSIAN VDW
  Epsilon function type                           ...         CPCM
Radii:
 Radius for C  used is    3.8550 Bohr (=   2.0400 Ang.)
 Radius for O  used is    3.4469 Bohr (=   1.8240 Ang.)
 Radius for H  used is    2.4944 Bohr (=   1.3200 Ang.)
Calculating surface                               ...        done! (  0.0s)
GEPOL surface points                              ...          919
GEPOL Volume                                      ...     984.5996
GEPOL Surface-area                                ...     561.0323
Calculating surface distance matrix               ...        done! (  0.0s)
Performing Cholesky decomposition & store         ...        done! (  0.0s)
Overall time for CPCM initialization              ...                 0.0s
--------------
SCF ITERATIONS
--------------
ITER       Energy         Delta-E        Max-DP      RMS-DP      [F,P]     Damp
               ***  Starting incremental Fock matrix formation  ***
  0   -346.6873569004   0.000000000000 0.00564869  0.00014633  0.0183517 0.7000
                      *** Initiating the SOSCF procedure ***
                      *** Re-Reading the Fockian *** 
                      *** Removing any level shift *** 
ITER      Energy       Delta-E        Grad      Rot      Max-DP    RMS-DP
  1   -346.68841987  -0.0010629652  0.001583  0.001583  0.013507  0.000441
               *** Restarting incremental Fock matrix formation ***
  2   -346.69077752  -0.0023576563  0.001865  0.003479  0.007016  0.000158
  3   -346.69071895   0.0000585696  0.002503  0.001736  0.003744  0.000079
  4   -346.69091165  -0.0001926959  0.000337  0.000355  0.002324  0.000048
  5   -346.69090814   0.0000035087  0.000535  0.000278  0.001620  0.000032
  6   -346.69091370  -0.0000055599  0.000027  0.000085  0.000060  0.000003
  7   -346.69091368   0.0000000161  0.000033  0.000067  0.000031  0.000002
  8   -346.69091374  -0.0000000559  0.000009  0.000037  0.000023  0.000001
  9   -346.69091374   0.0000000012  0.000014  0.000023  0.000023  0.000001
                  ***Gradient check signals convergence***
              ***Rediagonalizing the Fockian in SOSCF/NRSCF***

               *****************************************************
               *                     SUCCESS                       *
               *           SCF CONVERGED AFTER  10 CYCLES          *
               *****************************************************

Total Energy       :         -346.69091374 Eh           -9433.93938 eV
  Last Energy change         ...   -4.2033e-09  Tolerance :   1.0000e-08
  Last MAX-Density change    ...    1.2206e-05  Tolerance :   1.0000e-07
             **** THE GBW FILE WAS UPDATED (ORCA.gbw) ****
             **** DENSITY ORCA.scfp WAS UPDATED ****
             **** ENERGY FILE WAS UPDATED (ORCA.en.tmp) ****
             **** THE GBW FILE WAS UPDATED (ORCA.gbw) ****
             **** DENSITY ORCA.scfp WAS UPDATED ****
Total SCF time: 0 days 0 hours 0 min 19 sec 

Maximum memory used throughout the entire SCF-calculation: 52.2 MB


-------------------------------------------------------------------------------
                          DFT DISPERSION CORRECTION                            
                                                                               
                                 DFTD4 V2.5                                    
-------------------------------------------------------------------------------
Starting D4
-------------------------   ----------------
Dispersion correction           -0.004862038
-------------------------   ----------------

------------------   -----------------
gCP correction             0.006422547
------------------   -----------------

-------------------------   --------------------
FINAL SINGLE POINT ENERGY      -346.689353232795
-------------------------   --------------------

------------------------------------------------------------------------------
                         ORCA SCF GRADIENT CALCULATION
------------------------------------------------------------------------------

Gradient of the Kohn-Sham DFT energy:
Kohn-Sham wavefunction type      ... RKS
Hartree-Fock exchange scaling    ...    0.000
Number of operators              ...    1
Number of atoms                  ...   16
Basis set dimensions             ...  197
Integral neglect threshold       ... 2.5e-11
[...]
 Orbital Gradient       TolG            ....  1.000e-05
 Orbital Rotation angle TolX            ....  1.000e-05
 DIIS Error             TolErr          ....  5.000e-07


Diagonalization of the overlap matrix:
Smallest eigenvalue                        ... 3.393e-05
Time for diagonalization                   ...    0.003 sec
Threshold for overlap eigenvalues          ... 1.000e-08
Number of eigenvalues below threshold      ... 0
Time for construction of square roots      ...    0.000 sec
Total time needed                          ...    0.004 sec

---------------------
INITIAL GUESS: MOREAD
---------------------
Guess MOs are being read from file: ORCA.gbw
Input Geometry matches current geometry (good)
Input basis set matches current basis set (good)
MOs were renormalized
MOs were reorthogonalized (Cholesky)
                      ------------------
                      INITIAL GUESS DONE (   0.0 sec)
                      ------------------
-------------------
DFT GRID GENERATION
-------------------

General Integration Accuracy     IntAcc      ... 4.388
Radial Grid Type                 RadialGrid  ... OptM3 with GC (2021)
Angular Grid (max. ang.)         AngularGrid ... 4 (Lebedev-302)
Angular grid pruning method      GridPruning ... 4 (adaptive)
Weight generation scheme         WeightScheme... Becke
Basis function cutoff            BFCut       ... 1.0000e-11
Integration weight cutoff        WCut        ... 1.0000e-14
Angular grids for H and He will be reduced by one unit
Partially contracted basis set               ... off
Rotationally invariant grid construction     ... off

Total number of grid points                  ...    74288
Total number of batches                      ...     1170
Average number of points per batch           ...       63
Average number of grid points per atom       ...     4643
Time for grid setup =    0.535 sec


--------------------
CPCM SOLVATION MODEL
--------------------
CPCM parameters:
  Epsilon                                         ...      36.6000
  Refrac                                          ...       1.3440
  Rsolv                                           ...       1.3000
  Surface type                                    ... GAUSSIAN VDW
  Epsilon function type                           ...         CPCM
Radii:
 Radius for C  used is    3.8550 Bohr (=   2.0400 Ang.)
 Radius for O  used is    3.4469 Bohr (=   1.8240 Ang.)
 Radius for H  used is    2.4944 Bohr (=   1.3200 Ang.)
Calculating surface                               ...        done! (  0.0s)
GEPOL surface points                              ...          922
GEPOL Volume                                      ...     975.1809
GEPOL Surface-area                                ...     553.6401
Calculating surface distance matrix               ...        done! (  0.0s)
Performing Cholesky decomposition & store         ...        done! (  0.0s)
Overall time for CPCM initialization              ...                 0.0s
--------------
SCF ITERATIONS
--------------
ITER       Energy         Delta-E        Max-DP      RMS-DP      [F,P]     Damp
               ***  Starting incremental Fock matrix formation  ***
                      *** Initiating the SOSCF procedure ***
                      *** Re-Reading the Fockian *** 
                      *** Removing any level shift *** 
ITER      Energy       Delta-E        Grad      Rot      Max-DP    RMS-DP
  0   -346.69781905 -346.6978190532  0.000385  0.000385  0.000965  0.000029
               *** Restarting incremental Fock matrix formation ***
  1   -346.69782733  -0.0000082807  0.000123  0.000360  0.000327  0.000010
  2   -346.69782805  -0.0000007142  0.000011  0.000060  0.000050  0.000002
  3   -346.69782804   0.0000000083  0.000024  0.000046  0.000034  0.000001
  4   -346.69782805  -0.0000000138  0.000003  0.000007  0.000011  0.000000
  5   -346.69782805   0.0000000025  0.000003  0.000004  0.000006  0.000000
                 **** Energy Check signals convergence ****
              ***Rediagonalizing the Fockian in SOSCF/NRSCF***

               *****************************************************
               *                     SUCCESS                       *
               *           SCF CONVERGED AFTER   6 CYCLES          *
               *****************************************************


----------------
TOTAL SCF ENERGY
----------------

Total Energy       :         -346.69782805 Eh           -9434.12752 eV

Components:
Nuclear Repulsion  :          345.52674302 Eh            9402.26068 eV
Electronic Energy  :         -692.22457107 Eh          -18836.38820 eV
One Electron Energy:        -1153.47595097 Eh          -31387.67634 eV
Two Electron Energy:          461.25137990 Eh           12551.28814 eV
CPCM Dielectric    :           -0.00855292 Eh              -0.23274 eV

Virial components:
Potential Energy   :         -691.80084878 Eh          -18824.85813 eV
Kinetic Energy     :          345.10302072 Eh            9390.73061 eV
Virial Ratio       :            2.00462125


DFT components:
N(Alpha)           :       29.000006198629 electrons
N(Beta)            :       29.000006198629 electrons
N(Total)           :       58.000012397258 electrons
E(X)               :      -47.549391768073 Eh       
E(C)               :       -1.863063333079 Eh       
E(XC)              :      -49.412455101151 Eh       
DFET-embed. en.    :        0.000000000000 Eh       
CPCM Solvation Model Properties:
Surface-charge          :           -0.02301451
Charge-correction       :           -0.00004572 Eh              -0.00124 eV
Free-energy (cav+disp)  :  This term is not implemented in the current solvation scheme

---------------
SCF CONVERGENCE
---------------

  Last Energy change         ...   -1.9439e-09  Tolerance :   1.0000e-08
  Last MAX-Density change    ...    1.1963e-05  Tolerance :   1.0000e-07
  Last RMS-Density change    ...    3.3140e-07  Tolerance :   5.0000e-09
  Last Orbital Gradient      ...    9.7073e-07  Tolerance :   1.0000e-05
  Last Orbital Rotation      ...    1.7609e-06  Tolerance :   1.0000e-05

             **** THE GBW FILE WAS UPDATED (ORCA.gbw) ****
             **** DENSITY ORCA.scfp WAS UPDATED ****
             **** ENERGY FILE WAS UPDATED (ORCA.en.tmp) ****
             **** THE GBW FILE WAS UPDATED (ORCA.gbw) ****
             **** DENSITY ORCA.scfp WAS UPDATED ****
----------------
ORBITAL ENERGIES
----------------

  NO   OCC          E(Eh)            E(eV) 
   0   2.0000     -18.988986      -516.7166 
   1   2.0000     -10.098502      -274.7942 
   2   2.0000     -10.079041      -274.2647 
   3   2.0000     -10.039812      -273.1972 
   4   2.0000     -10.039395      -273.1858 
   5   2.0000     -10.036087      -273.0958 
   6   2.0000     -10.034559      -273.0542 
   7   2.0000     -10.031031      -272.9582 
   8   2.0000      -1.031780       -28.0762 
   9   2.0000      -0.821342       -22.3499 
  10   2.0000      -0.724784       -19.7224 
  11   2.0000      -0.716047       -19.4846 
  12   2.0000      -0.660549       -17.9745 
  13   2.0000      -0.579223       -15.7615 
  14   2.0000      -0.559049       -15.2125 
  15   2.0000      -0.503814       -13.7095 
  16   2.0000      -0.453810       -12.3488 
  17   2.0000      -0.446317       -12.1449 
  18   2.0000      -0.432039       -11.7564 
  19   2.0000      -0.413148       -11.2423 
  20   2.0000      -0.392464       -10.6795 
  21   2.0000      -0.379020       -10.3137 
  22   2.0000      -0.354744        -9.6531 
  23   2.0000      -0.335855        -9.1391 
  24   2.0000      -0.326768        -8.8918 
  25   2.0000      -0.297783        -8.1031 
  26   2.0000      -0.297208        -8.0874 
  27   2.0000      -0.241255        -6.5649 
  28   2.0000      -0.206793        -5.6271 
  29   0.0000      -0.037510        -1.0207 
  30   0.0000      -0.021523        -0.5857 
  31   0.0000       0.066601         1.8123 
  32   0.0000       0.092497         2.5170 
  33   0.0000       0.110466         3.0059 
  34   0.0000       0.123355         3.3567 
  35   0.0000       0.129028         3.5110 
  36   0.0000       0.137323         3.7367 
  37   0.0000       0.140679         3.8281 
  38   0.0000       0.156252         4.2518 
  39   0.0000       0.174281         4.7424 
  40   0.0000       0.178483         4.8568 
  41   0.0000       0.183615         4.9964 
  42   0.0000       0.192844         5.2476 
  43   0.0000       0.209351         5.6967 
  44   0.0000       0.215035         5.8514 
  45   0.0000       0.219885         5.9834 
  46   0.0000       0.221957         6.0397 
  47   0.0000       0.230887         6.2827 
  48   0.0000       0.249481         6.7887 
  49   0.0000       0.261869         7.1258 
  50   0.0000       0.267608         7.2820 
  51   0.0000       0.284237         7.7345 
  52   0.0000       0.284758         7.7487 
  53   0.0000       0.305176         8.3043 
  54   0.0000       0.306452         8.3390 
  55   0.0000       0.326947         8.8967 
  56   0.0000       0.346042         9.4163 
  57   0.0000       0.346261         9.4222 
  58   0.0000       0.349790         9.5183 
  59   0.0000       0.362332         9.8596 
  60   0.0000       0.397790        10.8244 
  61   0.0000       0.410239        11.1632 
  62   0.0000       0.425267        11.5721 
  63   0.0000       0.426010        11.5923 
  64   0.0000       0.463497        12.6124 
  65   0.0000       0.495114        13.4727 
  66   0.0000       0.512905        13.9568 
  67   0.0000       0.521145        14.1811 
  68   0.0000       0.530015        14.4224 
  69   0.0000       0.543321        14.7845 
  70   0.0000       0.557035        15.1577 
  71   0.0000       0.570878        15.5344 
  72   0.0000       0.586782        15.9672 
  73   0.0000       0.595408        16.2019 
  74   0.0000       0.601715        16.3735 
  75   0.0000       0.615483        16.7481 
  76   0.0000       0.655345        17.8328 
  77   0.0000       0.658763        17.9259 
  78   0.0000       0.677307        18.4305 
  79   0.0000       0.700151        19.0521 
  80   0.0000       0.719284        19.5727 
  81   0.0000       0.800904        21.7937 
  82   0.0000       0.877064        23.8661 
  83   0.0000       0.951931        25.9033 
  84   0.0000       1.022254        27.8169 
  85   0.0000       1.030599        28.0440 
  86   0.0000       1.056764        28.7560 
  87   0.0000       1.095507        29.8103 
  88   0.0000       1.117910        30.4199 
  89   0.0000       1.120133        30.4804 
  90   0.0000       1.147654        31.2293 
  91   0.0000       1.181176        32.1414 
  92   0.0000       1.229272        33.4502 
  93   0.0000       1.243303        33.8320 
  94   0.0000       1.285655        34.9844 
  95   0.0000       1.300444        35.3869 
  96   0.0000       1.302856        35.4525 
  97   0.0000       1.308072        35.5945 
  98   0.0000       1.332342        36.2549 
  99   0.0000       1.339896        36.4604 
 100   0.0000       1.350559        36.7506 
 101   0.0000       1.372830        37.3566 
 102   0.0000       1.378297        37.5054 
 103   0.0000       1.421760        38.6881 
 104   0.0000       1.439583        39.1731 
 105   0.0000       1.451052        39.4851 
 106   0.0000       1.458359        39.6840 
 107   0.0000       1.461765        39.7766 
 108   0.0000       1.479677        40.2641 
 109   0.0000       1.486476        40.4491 
 110   0.0000       1.490976        40.5715 
 111   0.0000       1.495388        40.6916 
 112   0.0000       1.506010        40.9806 
 113   0.0000       1.518224        41.3130 
 114   0.0000       1.542342        41.9692 
 115   0.0000       1.585126        43.1335 
 116   0.0000       1.592038        43.3216 
 117   0.0000       1.600804        43.5601 
 118   0.0000       1.616257        43.9806 
 119   0.0000       1.629620        44.3442 
 120   0.0000       1.663796        45.2742 
 121   0.0000       1.737965        47.2924 
 122   0.0000       1.741544        47.3898 
 123   0.0000       1.785953        48.5982 
 124   0.0000       1.815633        49.4059 
 125   0.0000       1.858043        50.5599 
 126   0.0000       1.870102        50.8881 
 127   0.0000       1.981834        53.9285 
 128   0.0000       1.996211        54.3197 
 129   0.0000       2.005277        54.5664 
 130   0.0000       2.065339        56.2007 
 131   0.0000       2.074140        56.4402 
 132   0.0000       2.092462        56.9388 
 133   0.0000       2.104115        57.2559 
 134   0.0000       2.108973        57.3881 
 135   0.0000       2.119275        57.6684 
 136   0.0000       2.162591        58.8471 
 137   0.0000       2.179106        59.2965 
 138   0.0000       2.234471        60.8031 
 139   0.0000       2.262429        61.5638 
 140   0.0000       2.267225        61.6943 
 141   0.0000       2.272712        61.8436 
 142   0.0000       2.276183        61.9381 
 143   0.0000       2.293050        62.3971 
 144   0.0000       2.302538        62.6552 
 145   0.0000       2.310651        62.8760 
 146   0.0000       2.340528        63.6890 
 147   0.0000       2.358953        64.1904 
 148   0.0000       2.359145        64.1956 
 149   0.0000       2.365762        64.3756 
 150   0.0000       2.400821        65.3297 
 151   0.0000       2.440464        66.4084 
 152   0.0000       2.450961        66.6940 
 153   0.0000       2.505197        68.1699 
 154   0.0000       2.535983        69.0076 
 155   0.0000       2.582434        70.2716 
 156   0.0000       2.621716        71.3405 
 157   0.0000       2.667562        72.5880 
 158   0.0000       2.677886        72.8690 
 159   0.0000       2.684367        73.0453 
 160   0.0000       2.710861        73.7663 
 161   0.0000       2.748107        74.7798 
 162   0.0000       2.750147        74.8353 
 163   0.0000       2.794712        76.0480 
 164   0.0000       2.839715        77.2726 
 165   0.0000       2.855547        77.7034 
 166   0.0000       2.923928        79.5641 
 167   0.0000       2.975678        80.9723 
 168   0.0000       3.043407        82.8153 
 169   0.0000       3.051678        83.0404 
 170   0.0000       3.116117        84.7939 
 171   0.0000       3.119578        84.8880 
 172   0.0000       3.155098        85.8546 
 173   0.0000       3.172150        86.3186 
 174   0.0000       3.214078        87.4595 
 175   0.0000       3.236683        88.0746 
 176   0.0000       3.251486        88.4774 
 177   0.0000       3.290490        89.5388 
 178   0.0000       3.361917        91.4824 
 179   0.0000       3.380244        91.9811 
 180   0.0000       3.417213        92.9871 
 181   0.0000       3.514835        95.6435 
 182   0.0000       3.523209        95.8714 
 183   0.0000       3.534059        96.1666 
 184   0.0000       3.611928        98.2856 
 185   0.0000       3.628887        98.7470 
 186   0.0000       3.935651       107.0945 
 187   0.0000       4.047887       110.1486 
 188   0.0000       4.301896       117.0605 
 189   0.0000      21.413406       582.6884 
 190   0.0000      21.937162       596.9405 
 191   0.0000      21.959647       597.5524 
 192   0.0000      21.979820       598.1013 
 193   0.0000      22.160967       603.0306 
 194   0.0000      22.180917       603.5734 
 195   0.0000      22.319621       607.3478 
 196   0.0000      43.709587      1189.3983 
-------
TIMINGS
-------

Total SCF time: 0 days 0 hours 0 min 11 sec 

Total time                  ....      11.953 sec
Sum of individual times     ....      11.780 sec  ( 98.5%)

Fock matrix formation       ....      11.226 sec  ( 93.9%)
  Split-RI-J                ....       0.823 sec  (  7.3% of F)
  XC integration            ....       6.936 sec  ( 61.8% of F)
    Basis function eval.    ....       1.207 sec  ( 17.4% of XC)
    Density eval.           ....       1.506 sec  ( 21.7% of XC)
    XC-Functional eval.     ....       0.812 sec  ( 11.7% of XC)
    XC-Potential eval.      ....       3.268 sec  ( 47.1% of XC)
Diagonalization             ....       0.003 sec  (  0.0%)
Density matrix formation    ....       0.002 sec  (  0.0%)
Population analysis         ....       0.000 sec  (  0.0%)
Initial guess               ....       0.004 sec  (  0.0%)
Orbital Transformation      ....       0.000 sec  (  0.0%)
Orbital Orthonormalization  ....       0.002 sec  (  0.0%)
DIIS solution               ....       0.000 sec  (  0.0%)
SOSCF solution              ....       0.009 sec  (  0.1%)
Grid generation             ....       0.535 sec  (  4.5%)

Maximum memory used throughout the entire SCF-calculation: 51.9 MB


-------------------------------------------------------------------------------
                          DFT DISPERSION CORRECTION                            
                                                                               
                                 DFTD4 V2.5                                    
-------------------------------------------------------------------------------
The R2SCAN3C composite method is recognized
Using three-body term ABC
Active option DFTDOPT                   ...         5   

Starting D4
-------------------------   ----------------
Dispersion correction           -0.004817948
-------------------------   ----------------

------------------   -----------------
gCP correction             0.006709756
------------------   -----------------

-------------------------   --------------------
FINAL SINGLE POINT ENERGY      -346.695936245234
-------------------------   --------------------

                                *** OPTIMIZATION RUN DONE ***

                            ***************************************
                            *     ORCA property calculations      *
                            ***************************************

                                    ---------------------
                                    Active property flags
                                    ---------------------
   (+) Dipole Moment


------------------------------------------------------------------------------
                       ORCA ELECTRIC PROPERTIES CALCULATION
------------------------------------------------------------------------------

Dipole Moment Calculation                       ... on
Quadrupole Moment Calculation                   ... off
Polarizability Calculation                      ... off
GBWName                                         ... ORCA.gbw
Electron density                                ... ORCA.scfp
The origin for moment calculation is the CENTER OF MASS  = (-0.707746,  1.833444  0.672234)

-------------
DIPOLE MOMENT
-------------
                                X             Y             Z
Electronic contribution:     -1.43790      -1.86202      -0.92079
Nuclear contribution   :      1.79209       2.47276       1.18944
                        -----------------------------------------
Total Dipole Moment    :      0.35419       0.61073       0.26866
                        -----------------------------------------
Magnitude (a.u.)       :      0.75539
Magnitude (Debye)      :      1.92005



--------------------
Rotational spectrum 
--------------------
 
Rotational constants in cm-1:     0.167730     0.052249     0.040146 
Rotational constants in MHz :  5028.405920  1566.372156  1203.553342 

 Dipole components along the rotational axes: 
x,y,z [a.u.] :    -0.436180    -0.616734    -0.001849 
x,y,z [Debye]:    -1.108681    -1.567612    -0.004700 

 

Timings for individual modules:

Sum of individual times         ...     1455.816 sec (=  24.264 min)
GTO integral calculation        ...       10.982 sec (=   0.183 min)   0.8 %
SCF iterations                  ...      999.953 sec (=  16.666 min)  68.7 %
SCF Gradient evaluation         ...      440.046 sec (=   7.334 min)  30.2 %
Geometry relaxation             ...        4.835 sec (=   0.081 min)   0.3 %
                             ****ORCA TERMINATED NORMALLY****
TOTAL RUN TIME: 0 days 0 hours 24 minutes 26 seconds 335 msec
