
                                 *****************
                                 * O   R   C   A *
                                 *****************

                                            #,                                       
                                            ###                                      
                                            ####                                     
                                            #####                                    
                                            ######                                   
                                           ########,                                 
                                     ,,################,,,,,                         
                               ,,#################################,,                 
                          ,,##########################################,,             
                       ,#########################################, ''#####,          
                    ,#############################################,,   '####,        
                  ,##################################################,,,,####,       
                ,###########''''           ''''###############################       
              ,#####''   ,,,,##########,,,,          '''####'''          '####       
            ,##' ,,,,###########################,,,                        '##       
           ' ,,###''''                  '''############,,,                           
         ,,##''                                '''############,,,,        ,,,,,,###''
      ,#''                                            '''#######################'''  
     '                                                          ''''####''''         
             ,#######,   #######,   ,#######,      ##                                
            ,#'     '#,  ##    ##  ,#'     '#,    #''#        ######   ,####,        
            ##       ##  ##   ,#'  ##            #'  '#       #        #'  '#        
            ##       ##  #######   ##           ,######,      #####,   #    #        
            '#,     ,#'  ##    ##  '#,     ,#' ,#      #,         ##   #,  ,#        
             '#######'   ##     ##  '#######'  #'      '#     #####' # '####'        



                  #######################################################
                  #                        -***-                        #
                  #          Department of theory and spectroscopy      #
                  #    Directorship and core code : Frank Neese         #
                  #        Max Planck Institute fuer Kohlenforschung    #
                  #                Kaiser Wilhelm Platz 1               #
                  #                 D-45470 Muelheim/Ruhr               #
                  #                      Germany                        #
                  #                                                     #
                  #                  All rights reserved                #
                  #                        -***-                        #
                  #######################################################


                         Program Version 5.0.4 -  RELEASE  -


 With contributions from (in alphabetic order):
   Daniel Aravena         : Magnetic Suceptibility
   Michael Atanasov       : Ab Initio Ligand Field Theory (pilot matlab implementation)
   Alexander A. Auer      : GIAO ZORA, VPT2 properties, NMR spectrum
   Ute Becker             : Parallelization
   Giovanni Bistoni       : ED, misc. LED, open-shell LED, HFLD
   Martin Brehm           : Molecular dynamics
   Dmytro Bykov           : SCF Hessian
   Vijay G. Chilkuri      : MRCI spin determinant printing, contributions to CSF-ICE
   Dipayan Datta          : RHF DLPNO-CCSD density
   Achintya Kumar Dutta   : EOM-CC, STEOM-CC
   Dmitry Ganyushin       : Spin-Orbit,Spin-Spin,Magnetic field MRCI
   Miquel Garcia          : C-PCM and meta-GGA Hessian, CC/C-PCM, Gaussian charge scheme
   Yang Guo               : DLPNO-NEVPT2, F12-NEVPT2, CIM, IAO-localization
   Andreas Hansen         : Spin unrestricted coupled pair/coupled cluster methods
   Benjamin Helmich-Paris : MC-RPA, TRAH-SCF, COSX integrals
   Lee Huntington         : MR-EOM, pCC
   Robert Izsak           : Overlap fitted RIJCOSX, COSX-SCS-MP3, EOM
   Marcus Kettner         : VPT2
   Christian Kollmar      : KDIIS, OOCD, Brueckner-CCSD(T), CCSD density, CASPT2, CASPT2-K
   Simone Kossmann        : Meta GGA functionals, TD-DFT gradient, OOMP2, MP2 Hessian
   Martin Krupicka        : Initial AUTO-CI
   Lucas Lang             : DCDCAS
   Marvin Lechner         : AUTO-CI (C++ implementation), FIC-MRCC
   Dagmar Lenk            : GEPOL surface, SMD
   Dimitrios Liakos       : Extrapolation schemes; Compound Job, initial MDCI parallelization
   Dimitrios Manganas     : Further ROCIS development; embedding schemes
   Dimitrios Pantazis     : SARC Basis sets
   Anastasios Papadopoulos: AUTO-CI, single reference methods and gradients
   Taras Petrenko         : DFT Hessian,TD-DFT gradient, ASA, ECA, R-Raman, ABS, FL, XAS/XES, NRVS
   Peter Pinski           : DLPNO-MP2, DLPNO-MP2 Gradient
   Christoph Reimann      : Effective Core Potentials
   Marius Retegan         : Local ZFS, SOC
   Christoph Riplinger    : Optimizer, TS searches, QM/MM, DLPNO-CCSD(T), (RO)-DLPNO pert. Triples
   Tobias Risthaus        : Range-separated hybrids, TD-DFT gradient, RPA, STAB
   Michael Roemelt        : Original ROCIS implementation
   Masaaki Saitow         : Open-shell DLPNO-CCSD energy and density
   Barbara Sandhoefer     : DKH picture change effects
   Avijit Sen             : IP-ROCIS
   Kantharuban Sivalingam : CASSCF convergence, NEVPT2, FIC-MRCI
   Bernardo de Souza      : ESD, SOC TD-DFT
   Georgi Stoychev        : AutoAux, RI-MP2 NMR, DLPNO-MP2 response
   Willem Van den Heuvel  : Paramagnetic NMR
   Boris Wezisla          : Elementary symmetry handling
   Frank Wennmohs         : Technical directorship


 We gratefully acknowledge several colleagues who have allowed us to
 interface, adapt or use parts of their codes:
   Stefan Grimme, W. Hujo, H. Kruse, P. Pracht,  : VdW corrections, initial TS optimization,
                  C. Bannwarth, S. Ehlert          DFT functionals, gCP, sTDA/sTD-DF
   Ed Valeev, F. Pavosevic, A. Kumar             : LibInt (2-el integral package), F12 methods
   Garnet Chan, S. Sharma, J. Yang, R. Olivares  : DMRG
   Ulf Ekstrom                                   : XCFun DFT Library
   Mihaly Kallay                                 : mrcc  (arbitrary order and MRCC methods)
   Jiri Pittner, Ondrej Demel                    : Mk-CCSD
   Frank Weinhold                                : gennbo (NPA and NBO analysis)
   Christopher J. Cramer and Donald G. Truhlar   : smd solvation model
   Lars Goerigk                                  : TD-DFT with DH, B97 family of functionals
   V. Asgeirsson, H. Jonsson                     : NEB implementation
   FAccTs GmbH                                   : IRC, NEB, NEB-TS, DLPNO-Multilevel, CI-OPT
                                                   MM, QMMM, 2- and 3-layer-ONIOM, Crystal-QMMM,
                                                   LR-CPCM, SF, NACMEs, symmetry and pop. for TD-DFT,
                                                   nearIR, NL-DFT gradient (VV10), updates on ESD,
                                                   ML-optimized integration grids
   S Lehtola, MJT Oliveira, MAL Marques          : LibXC Library
   Liviu Ungur et al                             : ANISO software


 Your calculation uses the libint2 library for the computation of 2-el integrals
 For citations please refer to: http://libint.valeyev.net

 Your ORCA version has been built with support for libXC version: 5.1.0
 For citations please refer to: https://tddft.org/programs/libxc/

 This ORCA versions uses:
   CBLAS   interface :  Fast vector & matrix operations
   LAPACKE interface :  Fast linear algebra routines
   SCALAPACK package :  Parallel linear algebra routines
   Shared memory     :  Shared parallel matrices


Your calculation utilizes the geometrical counterpoise correction gCP
Please cite in your paper:
H.Kruse, S. Grimme J.Chem.Phys., 136, (2012), 154101 
   

Your calculation utilizes the atom-pairwise dispersion correction
based on tight binding partial charges (D4)
Cite in your paper:
E.Caldeweyher, C.Bannwarth, S.Grimme, J.Chem.Phys., (2017), 147, 034112.
E.Caldeweyher, S.Ehlert, A.Hansen, H.Neugebauer, S.Grimme, J.Chem.Phys., (2018), in progress.
   

================================================================================

----- Orbital basis set information -----
Your calculation utilizes the basis: def2-mTZVPP
   Stefan Grimme, Andreas Hansen, Sebastian Ehlert, and Jan-Michael Mewes 
   J. Chem. Phys. 154, 000000 (2021). DOI: 10.1063/5.0040021

----- AuxJ basis set information -----
Your calculation utilizes the basis: def2-mTZVPP/J
   Stefan Grimme, Andreas Hansen, Sebastian Ehlert, and Jan-Michael Mewes 
   J. Chem. Phys. 154, 000000 (2021). DOI: 10.1063/5.0040021

================================================================================
                                        WARNINGS
                       Please study these warnings very carefully!
================================================================================

WARNING: Old DensityContainer found on disk!
         Will remove this file - 
         If you want to keep old densities, please start your calculation with a different basename. 

Using LibXC functional ID 497 : Re-regularized SCAN exchange by Furness et al
[ 1]  J. W. Furness, A. D. Kaplan, J. Ning, J. P. Perdew, and J. Sun, J. Phys. Chem. Lett. 11, 8208 (2020)
[ 2]  J. W. Furness, A. D. Kaplan, J. Ning, J. P. Perdew, and J. Sun, J. Phys. Chem. Lett. 11, 9248 (2020)
Using LibXC functional ID 498 : Re-regularized SCAN correlation by Furness et al
[ 1]  J. W. Furness, A. D. Kaplan, J. Ning, J. P. Perdew, and J. Sun, J. Phys. Chem. Lett. 11, 8208 (2020)
[ 2]  J. W. Furness, A. D. Kaplan, J. Ning, J. P. Perdew, and J. Sun, J. Phys. Chem. Lett. 11, 9248 (2020)
Using LibXC functional ID 497 : Re-regularized SCAN exchange by Furness et al
[ 1]  J. W. Furness, A. D. Kaplan, J. Ning, J. P. Perdew, and J. Sun, J. Phys. Chem. Lett. 11, 8208 (2020)
[ 2]  J. W. Furness, A. D. Kaplan, J. Ning, J. P. Perdew, and J. Sun, J. Phys. Chem. Lett. 11, 9248 (2020)
Using LibXC functional ID 498 : Re-regularized SCAN correlation by Furness et al
[ 1]  J. W. Furness, A. D. Kaplan, J. Ning, J. P. Perdew, and J. Sun, J. Phys. Chem. Lett. 11, 8208 (2020)
[ 2]  J. W. Furness, A. D. Kaplan, J. Ning, J. P. Perdew, and J. Sun, J. Phys. Chem. Lett. 11, 9248 (2020)

WARNING: Geometry Optimization
  ===> : Switching off AutoStart
         For restart on a previous wavefunction, please use MOREAD

INFO   : the flag for use of the SHARK integral package has been found!

================================================================================
                                       INPUT FILE
================================================================================
NAME = ORCA.inp
|  1> ! R2SCAN-3C DEF2-MTZVPP  opt  cpcm(acetonitrile) nopop 
|  2> %pal nprocs 1 end  %maxcore 4000 %geom maxiter 1000 end 
|  3> *xyz 0 1 
|  4> C   0.2274 1.1666 -0.0
|  5> C   -0.4707 2.3821 -0.0
|  6> C   -1.8644 2.3637 -0.0
|  7> C   -2.5538 1.1519 -0.0
|  8> C   -1.8487 -0.0537 -0.0
|  9> C   -0.4574 -0.0605 -0.0
| 10> O   1.6025 1.1007 -0.0
| 11> H   0.075 3.3355 -0.0
| 12> H   -2.4201 3.3132 -0.0
| 13> H   -3.6531 1.1446 -0.0
| 14> H   -2.3957 -1.0086 -0.0
| 15> H   0.1122 -0.9999 -0.0
| 16> C   2.1019 1.0767 1.4142
| 17> H   3.1739 1.4631 1.4452
| 18> H   2.0866 -0.0254 1.7052
| 19> H   1.4621 1.6719 2.1463
| 20> *
| 21> 
| 22>                          ****END OF INPUT****
================================================================================

                       *****************************
                       * Geometry Optimization Run *
                       *****************************

Geometry optimization settings:
Update method            Update   .... BFGS
Choice of coordinates    CoordSys .... Z-matrix Internals
Initial Hessian          InHess   .... Almoef's Model

Convergence Tolerances:
Energy Change            TolE     ....  5.0000e-06 Eh
Max. Gradient            TolMAXG  ....  3.0000e-04 Eh/bohr
RMS Gradient             TolRMSG  ....  1.0000e-04 Eh/bohr
Max. Displacement        TolMAXD  ....  4.0000e-03 bohr
RMS Displacement         TolRMSD  ....  2.0000e-03 bohr
Strict Convergence                ....  False
------------------------------------------------------------------------------
                        ORCA OPTIMIZATION COORDINATE SETUP
------------------------------------------------------------------------------

The optimization will be done in new redundant internal coordinates
Making redundant internal coordinates   ...  (new redundants) done
Evaluating the initial hessian          ...  (Almloef) done
Evaluating the coordinates              ...  done
Calculating the B-matrix                .... done
Calculating the G-matrix                .... done
Diagonalizing the G-matrix              .... done
Small eigenvalue found = 2.759e-02
The first mode is                       ....   28
The number of degrees of freedom        ....   42

    -----------------------------------------------------------------
                    Redundant Internal Coordinates


    -----------------------------------------------------------------
         Definition                    Initial Value    Approx d2E/dq
    -----------------------------------------------------------------
      1. B(C   1,C   0)                  1.4017         0.598494   
      2. B(C   2,C   1)                  1.3938         0.616086   
      3. B(C   3,C   2)                  1.3942         0.615281   
      4. B(C   4,C   3)                  1.3967         0.609713   
      5. B(C   5,C   4)                  1.3913         0.621782   
      6. B(C   5,C   0)                  1.4052         0.590758   
      7. B(O   6,C   0)                  1.3767         0.587665   
      8. B(H   7,C   1)                  1.0985         0.348996   
      9. B(H   8,C   2)                  1.1002         0.346907   
     10. B(H   9,C   3)                  1.0993         0.347974   
     11. B(H  10,C   4)                  1.1005         0.346507   
     12. B(H  11,C   5)                  1.0986         0.348904   
     13. B(C  12,O   6)                  1.5000         0.373603   
     14. B(H  13,C  12)                  1.1399         0.299748   
     15. B(H  14,C  12)                  1.1400         0.299705   
     16. B(H  15,C  12)                  1.1400         0.299686   
     17. A(C   1,C   0,C   5)          120.9656         0.427597   
     18. A(C   1,C   0,O   6)          122.6138         0.424412   
     19. A(C   5,C   0,O   6)          116.4206         0.423426   
     20. A(C   0,C   1,C   2)          119.1137         0.430830   
     21. A(C   0,C   1,H   7)          120.3443         0.348959   
     22. A(C   2,C   1,H   7)          120.5420         0.350669   
     23. A(C   1,C   2,H   8)          119.5821         0.350314   
     24. A(C   3,C   2,H   8)          120.0257         0.350237   
     25. A(C   1,C   2,C   3)          120.3922         0.432976   
     26. A(C   4,C   3,H   9)          119.9409         0.349881   
     27. A(C   2,C   3,H   9)          120.0163         0.350418   
     28. A(C   2,C   3,C   4)          120.0428         0.432168   
     29. A(C   3,C   4,H  10)          119.8730         0.349632   
     30. A(C   3,C   4,C   5)          120.6014         0.432985   
     31. A(C   5,C   4,H  10)          119.5256         0.350791   
     32. A(C   0,C   5,C   4)          118.8843         0.430535   
     33. A(C   4,C   5,H  11)          121.5103         0.351199   
     34. A(C   0,C   5,H  11)          119.6054         0.348179   
     35. A(C   0,O   6,C  12)          109.4705         0.387999   
     36. A(H  14,C  12,H  15)          109.4691         0.274741   
     37. A(H  13,C  12,H  15)          109.4719         0.274747   
     38. A(O   6,C  12,H  15)          114.2214         0.312884   
     39. A(H  13,C  12,H  14)          109.4744         0.274750   
     40. A(O   6,C  12,H  14)          104.5764         0.312888   
     41. A(O   6,C  12,H  13)          109.4699         0.312895   
     42. D(H   7,C   1,C   0,C   5)    180.0000         0.024687   
     43. D(H   7,C   1,C   0,O   6)      0.0000         0.024687   
     44. D(C   2,C   1,C   0,C   5)      0.0000         0.024687   
     45. D(C   2,C   1,C   0,O   6)    180.0000         0.024687   
     46. D(C   3,C   2,C   1,H   7)    180.0000         0.026245   
     47. D(H   8,C   2,C   1,C   0)    180.0000         0.026245   
     48. D(C   3,C   2,C   1,C   0)      0.0000         0.026245   
     49. D(H   8,C   2,C   1,H   7)      0.0000         0.026245   
     50. D(H   9,C   3,C   2,H   8)      0.0000         0.026172   
     51. D(H   9,C   3,C   2,C   1)    180.0000         0.026172   
     52. D(C   4,C   3,C   2,H   8)    180.0000         0.026172   
     53. D(C   4,C   3,C   2,C   1)      0.0000         0.026172   
     54. D(H  10,C   4,C   3,C   2)    180.0000         0.025673   
     55. D(C   5,C   4,C   3,H   9)    180.0000         0.025673   
     56. D(C   5,C   4,C   3,C   2)      0.0000         0.025673   
     57. D(H  10,C   4,C   3,H   9)      0.0000         0.025673   
     58. D(H  11,C   5,C   4,H  10)      0.0000         0.026762   
     59. D(C   0,C   5,C   4,H  10)    180.0000         0.026762   
     60. D(C   0,C   5,C   4,C   3)      0.0000         0.026762   
     61. D(H  11,C   5,C   0,O   6)      0.0000         0.024020   
     62. D(H  11,C   5,C   0,C   1)    180.0000         0.024020   
     63. D(H  11,C   5,C   4,C   3)    180.0000         0.026762   
     64. D(C   4,C   5,C   0,O   6)    180.0000         0.024020   
     65. D(C   4,C   5,C   0,C   1)      0.0000         0.024020   
     66. D(C  12,O   6,C   0,C   5)    -89.9973         0.025157   
     67. D(C  12,O   6,C   0,C   1)     90.0027         0.025157   
     68. D(H  15,C  12,O   6,C   0)    -32.8490         0.011087   
     69. D(H  14,C  12,O   6,C   0)     86.7950         0.011087   
     70. D(H  13,C  12,O   6,C   0)   -155.9922         0.011087   
    -----------------------------------------------------------------

Number of atoms                         .... 16
Number of degrees of freedom            .... 70

         *************************************************************
         *                GEOMETRY OPTIMIZATION CYCLE   1            *
         *************************************************************
---------------------------------
CARTESIAN COORDINATES (ANGSTROEM)
---------------------------------
  C      0.227400    1.166600   -0.000000
  C     -0.470700    2.382100   -0.000000
  C     -1.864400    2.363700   -0.000000
  C     -2.553800    1.151900   -0.000000
  C     -1.848700   -0.053700   -0.000000
  C     -0.457400   -0.060500   -0.000000
  O      1.602500    1.100700   -0.000000
  H      0.075000    3.335500   -0.000000
  H     -2.420100    3.313200   -0.000000
  H     -3.653100    1.144600   -0.000000
  H     -2.395700   -1.008600   -0.000000
  H      0.112200   -0.999900   -0.000000
  C      2.101900    1.076700    1.414200
  H      3.173900    1.463100    1.445200
  H      2.086600   -0.025400    1.705200
  H      1.462100    1.671900    2.146300

----------------------------
CARTESIAN COORDINATES (A.U.)
----------------------------
  NO LB      ZA    FRAG     MASS         X           Y           Z
   0 C     6.0000    0    12.011    0.429724    2.204555   -0.000000
   1 C     6.0000    0    12.011   -0.889494    4.501517   -0.000000
   2 C     6.0000    0    12.011   -3.523205    4.466746   -0.000000
   3 C     6.0000    0    12.011   -4.825983    2.176776   -0.000000
   4 C     6.0000    0    12.011   -3.493537   -0.101478   -0.000000
   5 C     6.0000    0    12.011   -0.864361   -0.114328   -0.000000
   6 O     8.0000    0    15.999    3.028286    2.080022   -0.000000
   7 H     1.0000    0     1.008    0.141729    6.303182   -0.000000
   8 H     1.0000    0     1.008   -4.573326    6.261041   -0.000000
   9 H     1.0000    0     1.008   -6.903359    2.162981   -0.000000
  10 H     1.0000    0     1.008   -4.527217   -1.905978   -0.000000
  11 H     1.0000    0     1.008    0.212027   -1.889537   -0.000000
  12 C     6.0000    0    12.011    3.972015    2.034668    2.672451
  13 H     1.0000    0     1.008    5.997802    2.764858    2.731032
  14 H     1.0000    0     1.008    3.943103   -0.047999    3.222361
  15 H     1.0000    0     1.008    2.762969    3.159433    4.055919

--------------------------------
INTERNAL COORDINATES (ANGSTROEM)
--------------------------------
 C      0   0   0     0.000000000000     0.00000000     0.00000000
 C      1   0   0     1.401707480183     0.00000000     0.00000000
 C      2   1   0     1.393821455567   119.11372032     0.00000000
 C      3   2   1     1.394177750504   120.39218735     0.00000000
 C      4   3   2     1.396652200800   120.04280088     0.00000000
 C      5   4   3     1.391316617453   120.60143379     0.00000000
 O      1   2   3     1.376678183164   122.61384211   180.00000000
 H      2   1   3     1.098526308288   120.34425171   180.00000085
 H      3   2   1     1.100160324680   119.58214485   180.00000000
 H      4   3   2     1.099324237884   120.01626926   180.00000000
 H      5   4   3     1.100473993332   119.87301313   180.00000000
 H      6   5   4     1.098597524119   121.51032830   180.00000000
 C      7   1   2     1.499979333191   109.47054177    90.00270573
 H     13   7   1     1.139934191083   109.46994675   204.00783333
 H     13   7   1     1.139973464603   104.57642637    86.79498048
 H     13   7   1     1.139990127150   114.22139061   327.15095593

---------------------------
INTERNAL COORDINATES (A.U.)
---------------------------
 C      0   0   0     0.000000000000     0.00000000     0.00000000
 C      1   0   0     2.648843257414     0.00000000     0.00000000
 C      2   1   0     2.633940830606   119.11372032     0.00000000
 C      3   2   1     2.634614130459   120.39218735     0.00000000
 C      4   3   2     2.639290163851   120.04280088     0.00000000
 C      5   4   3     2.629207372559   120.60143379     0.00000000
 O      1   2   3     2.601544740724   122.61384211   180.00000000
 H      2   1   3     2.075913873571   120.34425171   180.00000085
 H      3   2   1     2.079001717051   119.58214485   180.00000000
 H      4   3   2     2.077421741983   120.01626926   180.00000000
 H      5   4   3     2.079594464900   119.87301313   180.00000000
 H      6   5   4     2.076048451989   121.51032830   180.00000000
 C      7   1   2     2.834550146273   109.47054177    90.00270573
 H     13   7   1     2.154163431840   109.46994675   204.00783333
 H     13   7   1     2.154237648038   104.57642637    86.79498048
 H     13   7   1     2.154269135688   114.22139061   327.15095593

---------------------
BASIS SET INFORMATION
---------------------
There are 3 groups of distinct atoms

 Group   1 Type C   : 11s6p1d contracted to 5s3p1d pattern {62111/411/1}
 Group   2 Type O   : 11s6p2d contracted to 5s3p2d pattern {62111/411/11}
 Group   3 Type H   : 4s1p contracted to 2s1p pattern {31/1}

Atom   0C    basis set group =>   1
Atom   1C    basis set group =>   1
Atom   2C    basis set group =>   1
Atom   3C    basis set group =>   1
Atom   4C    basis set group =>   1
Atom   5C    basis set group =>   1
Atom   6O    basis set group =>   2
Atom   7H    basis set group =>   3
Atom   8H    basis set group =>   3
Atom   9H    basis set group =>   3
Atom  10H    basis set group =>   3
Atom  11H    basis set group =>   3
Atom  12C    basis set group =>   1
Atom  13H    basis set group =>   3
Atom  14H    basis set group =>   3
Atom  15H    basis set group =>   3
---------------------------------
AUXILIARY/J BASIS SET INFORMATION
---------------------------------
There are 3 groups of distinct atoms

 Group   1 Type C   : 8s3p3d contracted to 6s3p3d pattern {311111/111/111}
 Group   2 Type O   : 8s3p3d contracted to 6s3p3d pattern {311111/111/111}
 Group   3 Type H   : 5s2p1d contracted to 3s1p1d pattern {311/2/1}

Atom   0C    basis set group =>   1
Atom   1C    basis set group =>   1
Atom   2C    basis set group =>   1
Atom   3C    basis set group =>   1
Atom   4C    basis set group =>   1
Atom   5C    basis set group =>   1
Atom   6O    basis set group =>   2
Atom   7H    basis set group =>   3
Atom   8H    basis set group =>   3
Atom   9H    basis set group =>   3
Atom  10H    basis set group =>   3
Atom  11H    basis set group =>   3
Atom  12C    basis set group =>   1
Atom  13H    basis set group =>   3
Atom  14H    basis set group =>   3
Atom  15H    basis set group =>   3
------------------------------------------------------------------------------
                           ORCA GTO INTEGRAL CALCULATION
                           -- RI-GTO INTEGRALS CHOSEN --
------------------------------------------------------------------------------
------------------------------------------------------------------------------
                   ___                                                        
                  /   \      - P O W E R E D   B Y -                         
                 /     \                                                     
                 |  |  |   _    _      __       _____    __    __             
                 |  |  |  | |  | |    /  \     |  _  \  |  |  /  |          
                  \  \/   | |  | |   /    \    | | | |  |  | /  /          
                 / \  \   | |__| |  /  /\  \   | |_| |  |  |/  /          
                |  |  |   |  __  | /  /__\  \  |    /   |      \           
                |  |  |   | |  | | |   __   |  |    \   |  |\   \          
                \     /   | |  | | |  |  |  |  | |\  \  |  | \   \       
                 \___/    |_|  |_| |__|  |__|  |_| \__\ |__|  \__/        
                                                                              
                      - O R C A' S   B I G   F R I E N D -                    
                                      &                                       
                       - I N T E G R A L  F E E D E R -                       
                                                                              
 v1 FN, 2020, v2 2021                                                         
------------------------------------------------------------------------------


Reading SHARK input file ORCA.SHARKINP.tmp ... ok
----------------------
SHARK INTEGRAL PACKAGE
----------------------

Number of atoms                             ...     16
Number of basis functions                   ...    197
Number of shells                            ...     97
Maximum angular momentum                    ...      2
Integral batch strategy                     ... SHARK/LIBINT Hybrid
RI-J (if used) integral strategy            ... SPLIT-RIJ (Revised 2003 algorithm where possible)
Printlevel                                  ...      1
Contraction scheme used                     ... SEGMENTED contraction
Coulomb Range Separation                    ... NOT USED
Exchange Range Separation                   ... NOT USED
Finite Nucleus Model                        ... NOT USED
Auxiliary Coulomb fitting basis             ... AVAILABLE
   # of basis functions in Aux-J            ...    328
   # of shells in Aux-J                     ...    136
   Maximum angular momentum in Aux-J        ...      2
Auxiliary J/K fitting basis                 ... NOT available
Auxiliary Correlation fitting basis         ... NOT available
Auxiliary 'external' fitting basis          ... NOT available
Integral threshold                          ...     2.500000e-11
Primitive cut-off                           ...     2.500000e-12
Primitive pair pre-selection threshold      ...     2.500000e-12

Calculating pre-screening integrals         ... done (  0.0 sec) Dimension = 97
Organizing shell pair data                  ... done (  0.0 sec)
Shell pair information
Total number of shell pairs                 ...      4753
Shell pairs after pre-screening             ...      4329
Total number of primitive shell pairs       ...     17405
Primitive shell pairs kept                  ...     11383
          la=0 lb=0:   1407 shell pairs
          la=1 lb=0:   1640 shell pairs
          la=1 lb=1:    496 shell pairs
          la=2 lb=0:    469 shell pairs
          la=2 lb=1:    273 shell pairs
          la=2 lb=2:     44 shell pairs

Calculating one electron integrals          ... done (  0.0 sec)
Calculating RI/J V-Matrix + Cholesky decomp.... done (  0.0 sec)
Calculating Nuclear repulsion               ... done (  0.0 sec) ENN=    343.855873165731 Eh

SHARK setup successfully completed in   0.1 seconds

Maximum memory used throughout the entire GTOINT-calculation: 28.9 MB
-------------------------------------------------------------------------------
                                 ORCA SCF
-------------------------------------------------------------------------------

------------
SCF SETTINGS
------------
Hamiltonian:
 Density Functional     Method          .... DFT(GTOs)
  Functional kind                       .... Exchange
  Functional name                       .... Re-regularized SCAN exchange by Furness et al
  Functional family                     .... MGGA
  Functional refs                              
    [ 0] J. W. Furness, A. D. Kaplan, J. Ning, J. P. Perdew, and J. Sun, J. Phys. Chem. Lett. 11, 8208 (2020)
    [ 1] J. W. Furness, A. D. Kaplan, J. Ning, J. P. Perdew, and J. Sun, J. Phys. Chem. Lett. 11, 9248 (2020)
  Functional external parameters         .... 8
 Parameter  0 :         c1 parameter
 Parameter  1 :         c2 parameter
 Parameter  2 :          d parameter
 Parameter  3 :         k1 parameter
 Parameter  4 :       taur parameter
 Parameter  5 :     alphar parameter
 Parameter  6 :        eta parameter
 Parameter  7 :        dp2 parameter
  Functional kind                       .... Correlation
  Functional name                       .... Re-regularized SCAN correlation by Furness et al
  Functional family                     .... MGGA
  Functional refs                              
    [ 0] J. W. Furness, A. D. Kaplan, J. Ning, J. P. Perdew, and J. Sun, J. Phys. Chem. Lett. 11, 8208 (2020)
    [ 1] J. W. Furness, A. D. Kaplan, J. Ning, J. P. Perdew, and J. Sun, J. Phys. Chem. Lett. 11, 9248 (2020)
  Functional external parameters         .... 0
 Gradients option       PostSCFGGA      .... off
   Density functional embedding theory  .... OFF
 RI-approximation to the Coulomb term is turned on
   Number of AuxJ basis functions       .... 328


General Settings:
 Integral files         IntName         .... ORCA
 Hartree-Fock type      HFTyp           .... RHF
 Total Charge           Charge          ....    0
 Multiplicity           Mult            ....    1
 Number of Electrons    NEL             ....   58
 Basis Dimension        Dim             ....  197
 Nuclear Repulsion      ENuc            ....    343.8558731657 Eh

Convergence Acceleration:
 DIIS                   CNVDIIS         .... on
   Start iteration      DIISMaxIt       ....    12
   Startup error        DIISStart       ....  0.200000
   # of expansion vecs  DIISMaxEq       ....     5
   Bias factor          DIISBfac        ....   1.050
   Max. coefficient     DIISMaxC        ....  10.000
 Trust-Rad. Augm. Hess. CNVTRAH         .... auto
   Auto Start mean grad. ratio tolernc. ....  1.125000
   Auto Start start iteration           ....    20
   Auto Start num. interpolation iter.  ....    10
   Max. Number of Micro iterations      ....    16
   Max. Number of Macro iterations      .... Maxiter - #DIIS iter
   Number of Davidson start vectors     ....     2
   Converg. threshold I  (grad. norm)   ....   1.000e-05
   Converg. threshold II (energy diff.) ....   1.000e-08
   Grad. Scal. Fac. for Micro threshold ....   0.100
   Minimum threshold for Micro iter.    ....   0.010
   NR start threshold (gradient norm)   ....   0.001
   Initial trust radius                 ....   0.400
   Minimum AH scaling param. (alpha)    ....   1.000
   Maximum AH scaling param. (alpha)    .... 1000.000
   Orbital update algorithm             .... Taylor
   White noise on init. David. guess    .... on
   Maximum white noise                  ....   0.010
   Quad. conv. algorithm                .... NR
   COSX micro iterations for RIJONX calc.... off
 SOSCF                  CNVSOSCF        .... on
   Start iteration      SOSCFMaxIt      ....   150
   Startup grad/error   SOSCFStart      ....  0.003300
 Level Shifting         CNVShift        .... on
   Level shift para.    LevelShift      ....    0.2500
   Turn off err/grad.   ShiftErr        ....    0.0010
 Zerner damping         CNVZerner       .... off
 Static damping         CNVDamp         .... on
   Fraction old density DampFac         ....    0.7000
   Max. Damping (<1)    DampMax         ....    0.9800
   Min. Damping (>=0)   DampMin         ....    0.0000
   Turn off err/grad.   DampErr         ....    0.1000
 Fernandez-Rico         CNVRico         .... off

SCF Procedure:
 Maximum # iterations   MaxIter         ....   125
 SCF integral mode      SCFMode         .... Direct
   Integral package                     .... SHARK and LIBINT hybrid scheme
 Reset frequency        DirectResetFreq ....    20
 Integral Threshold     Thresh          ....  2.500e-11 Eh
 Primitive CutOff       TCut            ....  2.500e-12 Eh

Convergence Tolerance:
 Convergence Check Mode ConvCheckMode   .... Total+1el-Energy
 Convergence forced     ConvForced      .... 0
 Energy Change          TolE            ....  1.000e-08 Eh
 1-El. energy change                    ....  1.000e-05 Eh
 Orbital Gradient       TolG            ....  1.000e-05
 Orbital Rotation angle TolX            ....  1.000e-05
 DIIS Error             TolErr          ....  5.000e-07


Diagonalization of the overlap matrix:
Smallest eigenvalue                        ... 3.668e-05
Time for diagonalization                   ...    0.003 sec
Threshold for overlap eigenvalues          ... 1.000e-08
Number of eigenvalues below threshold      ... 0
Time for construction of square roots      ...    0.001 sec
Total time needed                          ...    0.004 sec

Time for model grid setup =    0.119 sec

------------------------------
INITIAL GUESS: MODEL POTENTIAL
------------------------------
Loading Hartree-Fock densities                     ... done
Calculating cut-offs                               ... done
Initializing the effective Hamiltonian             ... done
Setting up the integral package (SHARK)            ... done
Starting the Coulomb interaction                   ... done (   0.1 sec)
Reading the grid                                   ... done
Mapping shells                                     ... done
Starting the XC term evaluation                    ... done (   0.2 sec)
  promolecular density results
     # of electrons  =     57.995594226
     EX              =    -46.238667911
     EC              =     -1.904715754
     EX+EC           =    -48.143383664
Transforming the Hamiltonian                       ... done (   0.0 sec)
Diagonalizing the Hamiltonian                      ... done (   0.0 sec)
Back transforming the eigenvectors                 ... done (   0.0 sec)
Now organizing SCF variables                       ... done
                      ------------------
                      INITIAL GUESS DONE (   0.4 sec)
                      ------------------
-------------------
DFT GRID GENERATION
-------------------

General Integration Accuracy     IntAcc      ... 4.388
Radial Grid Type                 RadialGrid  ... OptM3 with GC (2021)
Angular Grid (max. ang.)         AngularGrid ... 4 (Lebedev-302)
Angular grid pruning method      GridPruning ... 4 (adaptive)
Weight generation scheme         WeightScheme... Becke
Basis function cutoff            BFCut       ... 1.0000e-11
Integration weight cutoff        WCut        ... 1.0000e-14
Angular grids for H and He will be reduced by one unit
Partially contracted basis set               ... off
Rotationally invariant grid construction     ... off

Total number of grid points                  ...    74249
Total number of batches                      ...     1167
Average number of points per batch           ...       63
Average number of grid points per atom       ...     4641
Time for grid setup =    0.514 sec


--------------------
CPCM SOLVATION MODEL
--------------------
CPCM parameters:
  Epsilon                                         ...      36.6000
  Refrac                                          ...       1.3440
  Rsolv                                           ...       1.3000
  Surface type                                    ... GAUSSIAN VDW
  Epsilon function type                           ...         CPCM
Radii:
 Radius for C  used is    3.8550 Bohr (=   2.0400 Ang.)
 Radius for O  used is    3.4469 Bohr (=   1.8240 Ang.)
 Radius for H  used is    2.4944 Bohr (=   1.3200 Ang.)
Calculating surface                               ...        done! (  0.0s)
GEPOL surface points                              ...          924
GEPOL Volume                                      ...     995.7531
GEPOL Surface-area                                ...     568.0176
Calculating surface distance matrix               ...        done! (  0.0s)
Performing Cholesky decomposition & store         ...        done! (  0.0s)
Overall time for CPCM initialization              ...                 0.0s
--------------
SCF ITERATIONS
--------------
ITER       Energy         Delta-E        Max-DP      RMS-DP      [F,P]     Damp
               ***  Starting incremental Fock matrix formation  ***
  0   -346.5238343899   0.000000000000 0.03560324  0.00150908  0.1603008 0.7000
  1   -346.5954848397  -0.071650449887 0.03739760  0.00124515  0.0721904 0.7000
                               ***Turning on DIIS***
  2   -346.6258560220  -0.030371182292 0.07547423  0.00235929  0.0315458 0.0000
  3   -346.6686387122  -0.042782690113 0.03765215  0.00088700  0.0439411 0.0000
  4   -346.6808581681  -0.012219455991 0.01542395  0.00036262  0.0073931 0.0000
  5   -346.6813531173  -0.000494949121 0.00574334  0.00017342  0.0049209 0.0000
                      *** Initiating the SOSCF procedure ***
                           *** Shutting down DIIS ***
                      *** Re-Reading the Fockian *** 
                      *** Removing any level shift *** 
ITER      Energy       Delta-E        Grad      Rot      Max-DP    RMS-DP
  6   -346.68140438  -0.0000512663  0.000392  0.000392  0.002179  0.000069
               *** Restarting incremental Fock matrix formation ***
  7   -346.68140864  -0.0000042532  0.000113  0.000549  0.002027  0.000050
  8   -346.68140746   0.0000011783  0.000393  0.000734  0.000475  0.000012
  9   -346.68140950  -0.0000020397  0.000025  0.000112  0.000150  0.000004
 10   -346.68140950   0.0000000010  0.000024  0.000030  0.000028  0.000001
 11   -346.68140951  -0.0000000176  0.000004  0.000024  0.000029  0.000001
                  ***Gradient check signals convergence***
              ***Rediagonalizing the Fockian in SOSCF/NRSCF***

               *****************************************************
               *                     SUCCESS                       *
               *           SCF CONVERGED AFTER  12 CYCLES          *
               *****************************************************


----------------
TOTAL SCF ENERGY
----------------

Total Energy       :         -346.68140952 Eh           -9433.68075 eV

Components:
Nuclear Repulsion  :          343.85587317 Eh            9356.79400 eV
Electronic Energy  :         -690.53728268 Eh          -18790.47475 eV
One Electron Energy:        -1150.37155351 Eh          -31303.20140 eV
Two Electron Energy:          459.83427083 Eh           12512.72664 eV
CPCM Dielectric    :           -0.00883953 Eh              -0.24054 eV

Virial components:
Potential Energy   :         -691.42162418 Eh          -18814.53891 eV
Kinetic Energy     :          344.74021467 Eh            9380.85815 eV
Virial Ratio       :            2.00563089


DFT components:
N(Alpha)           :       29.000018454462 electrons
N(Beta)            :       29.000018454462 electrons
N(Total)           :       58.000036908924 electrons
E(X)               :      -47.447206619000 Eh       
E(C)               :       -1.857191561128 Eh       
E(XC)              :      -49.304398180128 Eh       
DFET-embed. en.    :        0.000000000000 Eh       
CPCM Solvation Model Properties:
Surface-charge          :           -0.02309742
Charge-correction       :           -0.00007403 Eh              -0.00201 eV
Free-energy (cav+disp)  :  This term is not implemented in the current solvation scheme

---------------
SCF CONVERGENCE
---------------

  Last Energy change         ...   -2.1450e-09  Tolerance :   1.0000e-08
  Last MAX-Density change    ...    1.0517e-05  Tolerance :   1.0000e-07
  Last RMS-Density change    ...    3.4188e-07  Tolerance :   5.0000e-09
  Last Orbital Gradient      ...    2.1102e-06  Tolerance :   1.0000e-05
  Last Orbital Rotation      ...    6.2369e-06  Tolerance :   1.0000e-05

             **** THE GBW FILE WAS UPDATED (ORCA.gbw) ****
             **** DENSITY ORCA.scfp WAS UPDATED ****
             **** ENERGY FILE WAS UPDATED (ORCA.en.tmp) ****
             **** THE GBW FILE WAS UPDATED (ORCA.gbw) ****
             **** DENSITY ORCA.scfp WAS UPDATED ****
----------------
ORBITAL ENERGIES
----------------

  NO   OCC          E(Eh)            E(eV) 
   0   2.0000     -18.974593      -516.3249 
   1   2.0000     -10.094061      -274.6734 
   2   2.0000     -10.093328      -274.6534 
   3   2.0000     -10.043525      -273.2982 
   4   2.0000     -10.042450      -273.2690 
   5   2.0000     -10.041287      -273.2373 
   6   2.0000     -10.038832      -273.1705 
   7   2.0000     -10.038500      -273.1615 
   8   2.0000      -1.007894       -27.4262 
   9   2.0000      -0.819788       -22.3076 
  10   2.0000      -0.718980       -19.5644 
  11   2.0000      -0.709916       -19.3178 
  12   2.0000      -0.646388       -17.5891 
  13   2.0000      -0.579067       -15.7572 
  14   2.0000      -0.558254       -15.1909 
  15   2.0000      -0.490065       -13.3353 
  16   2.0000      -0.448100       -12.1934 
  17   2.0000      -0.439268       -11.9531 
  18   2.0000      -0.420434       -11.4406 
  19   2.0000      -0.405513       -11.0346 
  20   2.0000      -0.393529       -10.7085 
  21   2.0000      -0.383507       -10.4358 
  22   2.0000      -0.345381        -9.3983 
  23   2.0000      -0.336049        -9.1444 
  24   2.0000      -0.321414        -8.7461 
  25   2.0000      -0.316875        -8.6226 
  26   2.0000      -0.244835        -6.6623 
  27   2.0000      -0.240051        -6.5321 
  28   2.0000      -0.227654        -6.1948 
  29   0.0000      -0.039417        -1.0726 
  30   0.0000      -0.034622        -0.9421 
  31   0.0000       0.054726         1.4892 
  32   0.0000       0.084289         2.2936 
  33   0.0000       0.105146         2.8612 
  34   0.0000       0.114267         3.1094 
  35   0.0000       0.126592         3.4447 
  36   0.0000       0.129083         3.5125 
  37   0.0000       0.137026         3.7287 
  38   0.0000       0.148018         4.0278 
  39   0.0000       0.158802         4.3212 
  40   0.0000       0.168294         4.5795 
  41   0.0000       0.180968         4.9244 
  42   0.0000       0.187635         5.1058 
  43   0.0000       0.201015         5.4699 
  44   0.0000       0.206939         5.6311 
  45   0.0000       0.218991         5.9591 
  46   0.0000       0.222933         6.0663 
  47   0.0000       0.236692         6.4407 
  48   0.0000       0.245600         6.6831 
  49   0.0000       0.257951         7.0192 
  50   0.0000       0.264732         7.2037 
  51   0.0000       0.275526         7.4974 
  52   0.0000       0.290897         7.9157 
  53   0.0000       0.293544         7.9877 
  54   0.0000       0.317725         8.6457 
  55   0.0000       0.321569         8.7503 
  56   0.0000       0.326511         8.8848 
  57   0.0000       0.338818         9.2197 
  58   0.0000       0.355272         9.6674 
  59   0.0000       0.365547         9.9470 
  60   0.0000       0.384663        10.4672 
  61   0.0000       0.396148        10.7797 
  62   0.0000       0.417436        11.3590 
  63   0.0000       0.420141        11.4326 
  64   0.0000       0.452505        12.3133 
  65   0.0000       0.472539        12.8585 
  66   0.0000       0.493798        13.4369 
  67   0.0000       0.502058        13.6617 
  68   0.0000       0.511642        13.9225 
  69   0.0000       0.539293        14.6749 
  70   0.0000       0.551094        14.9960 
  71   0.0000       0.554510        15.0890 
  72   0.0000       0.573837        15.6149 
  73   0.0000       0.583082        15.8665 
  74   0.0000       0.603608        16.4250 
  75   0.0000       0.630218        17.1491 
  76   0.0000       0.642861        17.4931 
  77   0.0000       0.663553        18.0562 
  78   0.0000       0.673531        18.3277 
  79   0.0000       0.704032        19.1577 
  80   0.0000       0.747596        20.3431 
  81   0.0000       0.803379        21.8611 
  82   0.0000       0.925103        25.1733 
  83   0.0000       0.934140        25.4192 
  84   0.0000       0.988958        26.9109 
  85   0.0000       1.025672        27.9100 
  86   0.0000       1.052582        28.6422 
  87   0.0000       1.067030        29.0354 
  88   0.0000       1.088285        29.6137 
  89   0.0000       1.103014        30.0145 
  90   0.0000       1.124897        30.6100 
  91   0.0000       1.155051        31.4305 
  92   0.0000       1.183512        32.2050 
  93   0.0000       1.244431        33.8627 
  94   0.0000       1.265415        34.4337 
  95   0.0000       1.287027        35.0218 
  96   0.0000       1.315478        35.7960 
  97   0.0000       1.327886        36.1336 
  98   0.0000       1.332685        36.2642 
  99   0.0000       1.344017        36.5726 
 100   0.0000       1.356086        36.9010 
 101   0.0000       1.371535        37.3214 
 102   0.0000       1.373701        37.3803 
 103   0.0000       1.400490        38.1093 
 104   0.0000       1.439518        39.1713 
 105   0.0000       1.442599        39.2551 
 106   0.0000       1.453673        39.5565 
 107   0.0000       1.472016        40.0556 
 108   0.0000       1.477849        40.2143 
 109   0.0000       1.487519        40.4774 
 110   0.0000       1.493812        40.6487 
 111   0.0000       1.508497        41.0483 
 112   0.0000       1.515971        41.2517 
 113   0.0000       1.520568        41.3768 
 114   0.0000       1.538491        41.8645 
 115   0.0000       1.576571        42.9007 
 116   0.0000       1.584310        43.1113 
 117   0.0000       1.593820        43.3700 
 118   0.0000       1.597956        43.4826 
 119   0.0000       1.605017        43.6747 
 120   0.0000       1.655280        45.0425 
 121   0.0000       1.723492        46.8986 
 122   0.0000       1.739074        47.3226 
 123   0.0000       1.752352        47.6839 
 124   0.0000       1.798538        48.9407 
 125   0.0000       1.852652        50.4132 
 126   0.0000       1.860630        50.6303 
 127   0.0000       1.954296        53.1791 
 128   0.0000       1.985253        54.0215 
 129   0.0000       2.009088        54.6701 
 130   0.0000       2.037381        55.4400 
 131   0.0000       2.060212        56.0612 
 132   0.0000       2.071936        56.3802 
 133   0.0000       2.092979        56.9528 
 134   0.0000       2.101323        57.1799 
 135   0.0000       2.124027        57.7977 
 136   0.0000       2.166086        58.9422 
 137   0.0000       2.175254        59.1917 
 138   0.0000       2.205719        60.0207 
 139   0.0000       2.220501        60.4229 
 140   0.0000       2.244975        61.0889 
 141   0.0000       2.251610        61.2694 
 142   0.0000       2.266573        61.6766 
 143   0.0000       2.275178        61.9108 
 144   0.0000       2.285704        62.1972 
 145   0.0000       2.286252        62.2121 
 146   0.0000       2.290602        62.3304 
 147   0.0000       2.295026        62.4508 
 148   0.0000       2.333553        63.4992 
 149   0.0000       2.340103        63.6774 
 150   0.0000       2.356540        64.1247 
 151   0.0000       2.404651        65.4339 
 152   0.0000       2.419850        65.8475 
 153   0.0000       2.436324        66.2957 
 154   0.0000       2.496462        67.9322 
 155   0.0000       2.524327        68.6904 
 156   0.0000       2.539556        69.1048 
 157   0.0000       2.624348        71.4121 
 158   0.0000       2.637430        71.7681 
 159   0.0000       2.677204        72.8504 
 160   0.0000       2.696954        73.3878 
 161   0.0000       2.720437        74.0269 
 162   0.0000       2.754411        74.9513 
 163   0.0000       2.786186        75.8160 
 164   0.0000       2.848953        77.5240 
 165   0.0000       2.859994        77.8244 
 166   0.0000       2.913523        79.2810 
 167   0.0000       2.954730        80.4023 
 168   0.0000       2.973381        80.9098 
 169   0.0000       3.029801        82.4451 
 170   0.0000       3.082837        83.8882 
 171   0.0000       3.104951        84.4900 
 172   0.0000       3.126624        85.0798 
 173   0.0000       3.139745        85.4368 
 174   0.0000       3.186219        86.7014 
 175   0.0000       3.209011        87.3216 
 176   0.0000       3.224300        87.7377 
 177   0.0000       3.253861        88.5421 
 178   0.0000       3.328781        90.5807 
 179   0.0000       3.352375        91.2228 
 180   0.0000       3.402849        92.5962 
 181   0.0000       3.473634        94.5224 
 182   0.0000       3.475053        94.5610 
 183   0.0000       3.493762        95.0701 
 184   0.0000       3.589722        97.6813 
 185   0.0000       3.599098        97.9364 
 186   0.0000       3.873283       105.3974 
 187   0.0000       3.967861       107.9710 
 188   0.0000       4.263996       116.0292 
 189   0.0000      21.401193       582.3561 
 190   0.0000      21.812993       593.5617 
 191   0.0000      21.917081       596.3941 
 192   0.0000      21.953123       597.3749 
 193   0.0000      22.151627       602.7764 
 194   0.0000      22.157251       602.9295 
 195   0.0000      22.298238       606.7659 
 196   0.0000      43.733920      1190.0605 
-------
TIMINGS
-------

Total SCF time: 0 days 0 hours 0 min 23 sec 

Total time                  ....      23.733 sec
Sum of individual times     ....      23.585 sec  ( 99.4%)

Fock matrix formation       ....      22.644 sec  ( 95.4%)
  Split-RI-J                ....       1.596 sec  (  7.0% of F)
  XC integration            ....      14.471 sec  ( 63.9% of F)
    Basis function eval.    ....       2.216 sec  ( 15.3% of XC)
    Density eval.           ....       2.897 sec  ( 20.0% of XC)
    XC-Functional eval.     ....       1.480 sec  ( 10.2% of XC)
    XC-Potential eval.      ....       7.688 sec  ( 53.1% of XC)
Diagonalization             ....       0.023 sec  (  0.1%)
Density matrix formation    ....       0.004 sec  (  0.0%)
Population analysis         ....       0.000 sec  (  0.0%)
Initial guess               ....       0.267 sec  (  1.1%)
Orbital Transformation      ....       0.000 sec  (  0.0%)
Orbital Orthonormalization  ....       0.000 sec  (  0.0%)
DIIS solution               ....       0.005 sec  (  0.0%)
SOSCF solution              ....       0.008 sec  (  0.0%)
Grid generation             ....       0.634 sec  (  2.7%)

Maximum memory used throughout the entire SCF-calculation: 52.3 MB


-------------------------------------------------------------------------------
                          DFT DISPERSION CORRECTION                            
                                                                               
                                 DFTD4 V2.5                                    
-------------------------------------------------------------------------------
The R2SCAN3C composite method is recognized
Using three-body term ABC
Active option DFTDOPT                   ...         5   

Starting D4
-------------------------   ----------------
Dispersion correction           -0.004858377
-------------------------   ----------------

------------------   -----------------
gCP correction             0.005980076
------------------   -----------------

-------------------------   --------------------
FINAL SINGLE POINT ENERGY      -346.680287817516
-------------------------   --------------------

------------------------------------------------------------------------------
                         ORCA SCF GRADIENT CALCULATION
------------------------------------------------------------------------------

Gradient of the Kohn-Sham DFT energy:
Kohn-Sham wavefunction type      ... RKS
Hartree-Fock exchange scaling    ...    0.000
Number of operators              ...    1
Number of atoms                  ...   16
Basis set dimensions             ...  197
Integral neglect threshold       ... 2.5e-11
Integral primitive cutoff        ... 2.5e-12
SHARK Integral package           ... ON

Nuc. rep. gradient       (SHARK) ... done (  0.0 sec)
HCore & Overlap gradient (SHARK) ... done (  0.1 sec)
RI-J gradient            (SHARK) ... done (  0.6 sec)
Exchange-correlation gradient    ... done
Dispersion correction            ... Starting D4


------------------- 
Dispersion Gradient 
------------------- 
   1  :    0.000044356    0.000000456   -0.000002150
   2  :   -0.000009414    0.000064352   -0.000019281
   3  :   -0.000066468    0.000059548   -0.000013646
   4  :   -0.000084849    0.000000328   -0.000008834
   5  :   -0.000068161   -0.000058243   -0.000014415
   6  :   -0.000007350   -0.000060690   -0.000019457
   7  :    0.000081436   -0.000002780    0.000010342
   8  :    0.000005614    0.000043191   -0.000009271
   9  :   -0.000024489    0.000033433   -0.000001959
  10  :   -0.000037612   -0.000000181   -0.000000317
  11  :   -0.000025258   -0.000033758   -0.000002116
  12  :    0.000007057   -0.000040984   -0.000009290
  13  :    0.000076215   -0.000004095    0.000041130
  14  :    0.000021347   -0.000003534    0.000013702
  15  :    0.000038318    0.000005045    0.000015719
  16  :    0.000049259   -0.000002089    0.000019844

  |G| =    0.000259314

done
gCP correction                   ... done

------------------
CARTESIAN GRADIENT
------------------

   1   C   :    0.008891900    0.012533521    0.001699796
   2   C   :   -0.008494522   -0.000757142    0.000128121
   3   C   :    0.004125433   -0.005312351    0.000467766
   4   C   :    0.007589861    0.000843335   -0.000229484
   5   C   :    0.006176927    0.008010293    0.000500102
   6   C   :   -0.000675369   -0.004918457    0.000562429
   7   O   :   -0.010977940   -0.019576736   -0.028797298
   8   H   :    0.002423309    0.007548463   -0.000314478
   9   H   :   -0.004539130    0.007492793    0.000200078
  10   H   :   -0.008530602   -0.000047428   -0.000056385
  11   H   :   -0.003927105   -0.007663780    0.000112245
  12   H   :    0.003825867   -0.007445773   -0.000124442
  13   C   :   -0.009086176    0.014996665   -0.002542611
  14   H   :    0.026256338    0.008637711    0.005531947
  15   H   :   -0.001718241   -0.025325686    0.000200902
  16   H   :   -0.011340549    0.010984572    0.022661312

Difference to translation invariance:
           :   -0.0000000000    0.0000000000   -0.0000000000

Difference to rotation invariance:
           :    0.0001667431   -0.0001248106   -0.0001500608

Norm of the cartesian gradient     ...    0.0689107588
RMS gradient                       ...    0.0099464113
MAX gradient                       ...    0.0287972981

-------
TIMINGS
-------

Total SCF gradient time            ...        5.210 sec

One electron gradient       ....       0.110 sec  (  2.1%)
RI-J Coulomb gradient       ....       0.555 sec  ( 10.7%)
XC gradient                 ....       3.648 sec  ( 70.0%)
CPCM gradient               ....       0.455 sec  (  8.7%)
   A-Matrix (El+Nuc)        ....       0.027 sec  (  0.5%)
   Potential                ....       0.428 sec  (  8.2%)

Maximum memory used throughout the entire SCFGRAD-calculation: 51.4 MB
------------------------------------------------------------------------------
                         ORCA GEOMETRY RELAXATION STEP
------------------------------------------------------------------------------

Reading the OPT-File                    .... done
Getting information on internals        .... done
Copying old internal coords+grads       .... done
Making the new internal coordinates     .... (new redundants).... done
Validating the new internal coordinates .... (new redundants).... done
Calculating the B-matrix                .... done
Calculating the G,G- and P matrices     .... done
Transforming gradient to internals      .... done
Projecting the internal gradient        .... done
Number of atoms                         ....  16
Number of internal coordinates          ....  70
Current Energy                          ....  -346.680287818 Eh
Current gradient norm                   ....     0.068910759 Eh/bohr
Maximum allowed component of the step   ....  0.300
Current trust radius                    ....  0.300
Evaluating the initial hessian          ....  (Almloef) done
Projecting the Hessian                  .... done
Forming the augmented Hessian           .... done
Diagonalizing the augmented Hessian     .... done
Last element of RFO vector              ....  0.974752824
Lowest eigenvalues of augmented Hessian:
 -0.012820383  0.011334562  0.024490599  0.024787420  0.025205560
Length of the computed step             ....  0.229070032
The final length of the internal step   ....  0.229070032
Converting the step to cartesian space:
 Initial RMS(Int)=    0.0273791056
Transforming coordinates:
 Iter   0:  RMS(Cart)=    0.0669289714 RMS(Int)=    1.8376050894
 Iter   1:  RMS(Cart)=    0.0025907807 RMS(Int)=    0.0015948263
 Iter   2:  RMS(Cart)=    0.0001712524 RMS(Int)=    0.0000988560
 Iter   3:  RMS(Cart)=    0.0000142244 RMS(Int)=    0.0000090094
 Iter   4:  RMS(Cart)=    0.0000009658 RMS(Int)=    0.0000007669
 Iter   5:  RMS(Cart)=    0.0000000838 RMS(Int)=    0.0000000433
done
Storing new coordinates                 .... done

                                .--------------------.
          ----------------------|Geometry convergence|-------------------------
          Item                value                   Tolerance       Converged
          ---------------------------------------------------------------------
          RMS gradient        0.0077765940            0.0001000000      NO
          MAX gradient        0.0277719833            0.0003000000      NO
          RMS step            0.0273791056            0.0020000000      NO
          MAX step            0.0888509015            0.0040000000      NO
          ........................................................
          Max(Bonds)      0.0470      Max(Angles)    2.83
          Max(Dihed)        4.66      Max(Improp)    0.00
          ---------------------------------------------------------------------

The optimization has not yet converged - more geometry cycles are needed


    ---------------------------------------------------------------------------
                         Redundant Internal Coordinates
                            (Angstroem and degrees)

        Definition                    Value    dE/dq     Step     New-Value
    ----------------------------------------------------------------------------
     1. B(C   1,C   0)                1.4017  0.008962 -0.0079    1.3938   
     2. B(C   2,C   1)                1.3938 -0.000108  0.0001    1.3939   
     3. B(C   3,C   2)                1.3942  0.001531 -0.0012    1.3930   
     4. B(C   4,C   3)                1.3967  0.003199 -0.0026    1.3941   
     5. B(C   5,C   4)                1.3913 -0.000771  0.0007    1.3920   
     6. B(C   5,C   0)                1.4052  0.006091 -0.0055    1.3998   
     7. B(O   6,C   0)                1.3767 -0.006363  0.0056    1.3823   
     8. B(H   7,C   1)                1.0985  0.007754 -0.0113    1.0872   
     9. B(H   8,C   2)                1.1002  0.008758 -0.0129    1.0873   
    10. B(H   9,C   3)                1.0993  0.008531 -0.0125    1.0868   
    11. B(H  10,C   4)                1.1005  0.008603 -0.0127    1.0878   
    12. B(H  11,C   5)                1.0986  0.008351 -0.0122    1.0864   
    13. B(C  12,O   6)                1.5000  0.025586 -0.0350    1.4649   
    14. B(H  13,C  12)                1.1399  0.027772 -0.0470    1.0929   
    15. B(H  14,C  12)                1.1400  0.024555 -0.0416    1.0984   
    16. B(H  15,C  12)                1.1400  0.026653 -0.0451    1.0949   
    17. A(C   1,C   0,C   5)          120.97  0.001997   -0.31    120.66   
    18. A(C   1,C   0,O   6)          122.61  0.010803   -1.39    121.22   
    19. A(C   5,C   0,O   6)          116.42 -0.012801    1.70    118.12   
    20. A(C   0,C   1,C   2)          119.11 -0.001667    0.20    119.31   
    21. A(C   0,C   1,H   7)          120.34  0.002544   -0.37    119.97   
    22. A(C   2,C   1,H   7)          120.54 -0.000876    0.17    120.71   
    23. A(C   1,C   2,H   8)          119.58  0.000460   -0.07    119.51   
    24. A(C   3,C   2,H   8)          120.03  0.000179   -0.03    120.00   
    25. A(C   1,C   2,C   3)          120.39 -0.000639    0.10    120.49   
    26. A(C   4,C   3,H   9)          119.94 -0.001011    0.12    120.06   
    27. A(C   2,C   3,H   9)          120.02 -0.001025    0.12    120.14   
    28. A(C   2,C   3,C   4)          120.04  0.002036   -0.24    119.81   
    29. A(C   3,C   4,H  10)          119.87 -0.000582    0.06    119.93   
    30. A(C   3,C   4,C   5)          120.60  0.002002   -0.25    120.35   
    31. A(C   5,C   4,H  10)          119.53 -0.001420    0.19    119.72   
    32. A(C   0,C   5,C   4)          118.88 -0.003729    0.49    119.38   
    33. A(C   4,C   5,H  11)          121.51  0.001253   -0.15    121.36   
    34. A(C   0,C   5,H  11)          119.61  0.002476   -0.34    119.26   
    35. A(C   0,O   6,C  12)          109.47 -0.012203    1.74    111.21   
    36. A(H  14,C  12,H  15)          109.47 -0.000798    0.45    109.92   
    37. A(H  13,C  12,H  15)          109.47 -0.004556    0.28    109.75   
    38. A(O   6,C  12,H  15)          114.22  0.012448   -2.38    111.84   
    39. A(H  13,C  12,H  14)          109.47 -0.000712    0.51    109.98   
    40. A(O   6,C  12,H  14)          104.58 -0.014461    2.83    107.41   
    41. A(O   6,C  12,H  13)          109.47  0.007453   -1.51    107.96   
    42. D(H   7,C   1,C   0,C   5)    180.00 -0.000180    0.27    180.27   
    43. D(H   7,C   1,C   0,O   6)      0.00  0.000863   -1.33     -1.33   
    44. D(C   2,C   1,C   0,C   5)      0.00 -0.000041    0.06      0.06   
    45. D(C   2,C   1,C   0,O   6)    180.00  0.001002   -1.53    178.47   
    46. D(C   3,C   2,C   1,H   7)    180.00  0.000087   -0.13    179.87   
    47. D(H   8,C   2,C   1,C   0)    180.00 -0.000116    0.17    180.17   
    48. D(C   3,C   2,C   1,C   0)      0.00 -0.000053    0.08      0.08   
    49. D(H   8,C   2,C   1,H   7)      0.00  0.000023   -0.04     -0.04   
    50. D(H   9,C   3,C   2,H   8)      0.00  0.000062   -0.09     -0.09   
    51. D(H   9,C   3,C   2,C   1)    180.00 -0.000002    0.00    180.00   
    52. D(C   4,C   3,C   2,H   8)    180.00  0.000200   -0.30    179.70   
    53. D(C   4,C   3,C   2,C   1)      0.00  0.000136   -0.20     -0.20   
    54. D(H  10,C   4,C   3,C   2)    180.00 -0.000184    0.27    180.27   
    55. D(C   5,C   4,C   3,H   9)    180.00  0.000011   -0.02    179.98   
    56. D(C   5,C   4,C   3,C   2)      0.00 -0.000127    0.19      0.19   
    57. D(H  10,C   4,C   3,H   9)      0.00 -0.000046    0.07      0.07   
    58. D(H  11,C   5,C   4,H  10)      0.00 -0.000107    0.16      0.16   
    59. D(C   0,C   5,C   4,H  10)    180.00  0.000091   -0.14    179.86   
    60. D(C   0,C   5,C   4,C   3)      0.00  0.000034   -0.05     -0.05   
    61. D(H  11,C   5,C   0,O   6)      0.00 -0.000737    1.14      1.14   
    62. D(H  11,C   5,C   0,C   1)    180.00  0.000244   -0.36    179.64   
    63. D(H  11,C   5,C   4,C   3)    180.00 -0.000164    0.24    180.24   
    64. D(C   4,C   5,C   0,O   6)    180.00 -0.000931    1.43    181.43   
    65. D(C   4,C   5,C   0,C   1)      0.00  0.000050   -0.07     -0.07   
    66. D(C  12,O   6,C   0,C   5)    -90.00  0.001425   -2.16    -92.16   
    67. D(C  12,O   6,C   0,C   1)     90.00  0.000427   -0.63     89.37   
    68. D(H  15,C  12,O   6,C   0)    -32.85  0.005563   -4.66    -37.51   
    69. D(H  14,C  12,O   6,C   0)     86.79  0.001868   -3.54     83.25   
    70. D(H  13,C  12,O   6,C   0)   -155.99 -0.003108   -2.16   -158.15   
    ----------------------------------------------------------------------------

         *************************************************************
         *                GEOMETRY OPTIMIZATION CYCLE   2            *
         *************************************************************
---------------------------------
CARTESIAN COORDINATES (ANGSTROEM)
---------------------------------
  C      0.216244    1.140267    0.043233
  C     -0.469042    2.353961    0.046205
  C     -1.862536    2.350932    0.013097
  C     -2.566207    1.149198   -0.020979
  C     -1.872571   -0.060057   -0.026313
  C     -0.481026   -0.072921    0.006170
  O      1.597875    1.097761    0.044121
  H      0.083756    3.289794    0.070800
  H     -2.400274    3.295922    0.012494
  H     -3.652704    1.153650   -0.046726
  H     -2.419920   -0.999609   -0.057441
  H      0.076083   -1.005548   -0.001473
  C      2.127198    1.092478    1.410080
  H      3.160386    1.446791    1.372002
  H      2.099103    0.054959    1.769582
  H      1.541334    1.734321    2.076049

----------------------------
CARTESIAN COORDINATES (A.U.)
----------------------------
  NO LB      ZA    FRAG     MASS         X           Y           Z
   0 C     6.0000    0    12.011    0.408642    2.154793    0.081698
   1 C     6.0000    0    12.011   -0.886361    4.448342    0.087314
   2 C     6.0000    0    12.011   -3.519682    4.442617    0.024750
   3 C     6.0000    0    12.011   -4.849428    2.171670   -0.039644
   4 C     6.0000    0    12.011   -3.538647   -0.113491   -0.049725
   5 C     6.0000    0    12.011   -0.909007   -0.137801    0.011661
   6 O     8.0000    0    15.999    3.019547    2.074467    0.083377
   7 H     1.0000    0     1.008    0.158277    6.216810    0.133792
   8 H     1.0000    0     1.008   -4.535860    6.228390    0.023610
   9 H     1.0000    0     1.008   -6.902610    2.180082   -0.088300
  10 H     1.0000    0     1.008   -4.572986   -1.888987   -0.108547
  11 H     1.0000    0     1.008    0.143776   -1.900211   -0.002784
  12 C     6.0000    0    12.011    4.019821    2.064484    2.664665
  13 H     1.0000    0     1.008    5.972264    2.734039    2.592709
  14 H     1.0000    0     1.008    3.966730    0.103858    3.344025
  15 H     1.0000    0     1.008    2.912699    3.277392    3.923164

--------------------------------
INTERNAL COORDINATES (ANGSTROEM)
--------------------------------
 C      0   0   0     0.000000000000     0.00000000     0.00000000
 C      1   0   0     1.393800091291     0.00000000     0.00000000
 C      2   1   0     1.393890313283   119.31325127     0.00000000
 C      3   2   1     1.393009856076   120.49456718     0.07911912
 C      4   3   2     1.394079094069   119.80633889   359.79623808
 C      5   4   3     1.391983924930   120.35316706     0.18824167
 O      1   2   3     1.382285149594   121.21230884   178.48755373
 H      2   1   3     1.087186188736   119.97391933   180.20352862
 H      3   2   1     1.087276156745   119.50876875   180.17056148
 H      4   3   2     1.086811574226   120.13534604   180.00196336
 H      5   4   3     1.087803879140   119.93114445   180.27606795
 H      6   5   4     1.086380007650   121.36045077   180.25006181
 C      7   1   2     1.464941092317   111.21485165    89.37347224
 H     13   7   1     1.092916314612   107.93422720   201.80379895
 H     13   7   1     1.098396651178   107.41837682    83.24448701
 H     13   7   1     1.094858303943   111.82101563   322.54359552

---------------------------
INTERNAL COORDINATES (A.U.)
---------------------------
 C      0   0   0     0.000000000000     0.00000000     0.00000000
 C      1   0   0     2.633900457974     0.00000000     0.00000000
 C      2   1   0     2.634070952831   119.31325127     0.00000000
 C      3   2   1     2.632407129836   120.49456718     0.07911912
 C      4   3   2     2.634427696815   119.80633889   359.79623808
 C      5   4   3     2.630468400938   120.35316706     0.18824167
 O      1   2   3     2.612140371719   121.21230884   178.48755373
 H      2   1   3     2.054484153293   119.97391933   180.20352862
 H      3   2   1     2.054654168190   119.50876875   180.17056148
 H      4   3   2     2.053776234462   120.13534604   180.00196336
 H      5   4   3     2.055651418992   119.93114445   180.27606795
 H      6   5   4     2.052960691826   121.36045077   180.25006181
 C      7   1   2     2.768337466806   111.21485165    89.37347224
 H     13   7   1     2.065312521911   107.93422720   201.80379895
 H     13   7   1     2.075668857143   107.41837682    83.24448701
 H     13   7   1     2.068982349902   111.82101563   322.54359552

------------------------------------------------------------------------------
                   ___                                                        
                  /   \      - P O W E R E D   B Y -                         
                 /     \                                                     
                 |  |  |   _    _      __       _____    __    __             
                 |  |  |  | |  | |    /  \     |  _  \  |  |  /  |          
                  \  \/   | |  | |   /    \    | | | |  |  | /  /          
                 / \  \   | |__| |  /  /\  \   | |_| |  |  |/  /          
                |  |  |   |  __  | /  /__\  \  |    /   |      \           
                |  |  |   | |  | | |   __   |  |    \   |  |\   \          
                \     /   | |  | | |  |  |  |  | |\  \  |  | \   \       
                 \___/    |_|  |_| |__|  |__|  |_| \__\ |__|  \__/        
                                                                              
                      - O R C A' S   B I G   F R I E N D -                    
                                      &                                       
                       - I N T E G R A L  F E E D E R -                       
                                                                              
 v1 FN, 2020, v2 2021                                                         
------------------------------------------------------------------------------


Reading SHARK input file ORCA.SHARKINP.tmp ... ok
----------------------
SHARK INTEGRAL PACKAGE
----------------------

Number of atoms                             ...     16
Number of basis functions                   ...    197
Number of shells                            ...     97
Maximum angular momentum                    ...      2
Integral batch strategy                     ... SHARK/LIBINT Hybrid
RI-J (if used) integral strategy            ... SPLIT-RIJ (Revised 2003 algorithm where possible)
Printlevel                                  ...      1
Contraction scheme used                     ... SEGMENTED contraction
Coulomb Range Separation                    ... NOT USED
Exchange Range Separation                   ... NOT USED
Finite Nucleus Model                        ... NOT USED
Auxiliary Coulomb fitting basis             ... AVAILABLE
   # of basis functions in Aux-J            ...    328
   # of shells in Aux-J                     ...    136
   Maximum angular momentum in Aux-J        ...      2
Auxiliary J/K fitting basis                 ... NOT available
Auxiliary Correlation fitting basis         ... NOT available
Auxiliary 'external' fitting basis          ... NOT available
Integral threshold                          ...     2.500000e-11
Primitive cut-off                           ...     2.500000e-12
Primitive pair pre-selection threshold      ...     2.500000e-12

Calculating pre-screening integrals         ... done (  0.0 sec) Dimension = 97
Organizing shell pair data                  ... done (  0.0 sec)
Shell pair information
Total number of shell pairs                 ...      4753
Shell pairs after pre-screening             ...      4328
Total number of primitive shell pairs       ...     17405
Primitive shell pairs kept                  ...     11403
          la=0 lb=0:   1410 shell pairs
          la=1 lb=0:   1638 shell pairs
          la=1 lb=1:    494 shell pairs
          la=2 lb=0:    469 shell pairs
          la=2 lb=1:    273 shell pairs
          la=2 lb=2:     44 shell pairs

Calculating one electron integrals          ... done (  0.0 sec)
Calculating RI/J V-Matrix + Cholesky decomp.... done (  0.0 sec)
Calculating Nuclear repulsion               ... done (  0.0 sec) ENN=    345.182575926007 Eh

SHARK setup successfully completed in   0.1 seconds

Maximum memory used throughout the entire GTOINT-calculation: 28.9 MB

Diagonalization of the overlap matrix:
Smallest eigenvalue                        ... 3.657e-05
Time for diagonalization                   ...    0.003 sec
Threshold for overlap eigenvalues          ... 1.000e-08
Number of eigenvalues below threshold      ... 0
Time for construction of square roots      ...    0.001 sec
Total time needed                          ...    0.004 sec

-------------------
DFT GRID GENERATION
-------------------

General Integration Accuracy     IntAcc      ... 4.388
Radial Grid Type                 RadialGrid  ... OptM3 with GC (2021)
Angular Grid (max. ang.)         AngularGrid ... 4 (Lebedev-302)
Angular grid pruning method      GridPruning ... 4 (adaptive)
Weight generation scheme         WeightScheme... Becke
Basis function cutoff            BFCut       ... 1.0000e-11
Integration weight cutoff        WCut        ... 1.0000e-14
Angular grids for H and He will be reduced by one unit
Partially contracted basis set               ... off
Rotationally invariant grid construction     ... off

Total number of grid points                  ...    74216
Total number of batches                      ...     1168
Average number of points per batch           ...       63
Average number of grid points per atom       ...     4638
Time for grid setup =    0.515 sec


--------------------
CPCM SOLVATION MODEL
--------------------
CPCM parameters:
  Epsilon                                         ...      36.6000
  Refrac                                          ...       1.3440
  Rsolv                                           ...       1.3000
  Surface type                                    ... GAUSSIAN VDW
  Epsilon function type                           ...         CPCM
Radii:
 Radius for C  used is    3.8550 Bohr (=   2.0400 Ang.)
 Radius for O  used is    3.4469 Bohr (=   1.8240 Ang.)
 Radius for H  used is    2.4944 Bohr (=   1.3200 Ang.)
Calculating surface                               ...        done! (  0.0s)
GEPOL surface points                              ...          921
GEPOL Volume                                      ...     986.4760
GEPOL Surface-area                                ...     562.8949
Calculating surface distance matrix               ...        done! (  0.0s)
Performing Cholesky decomposition & store         ...        done! (  0.0s)
Overall time for CPCM initialization              ...                 0.0s
--------------
SCF ITERATIONS
--------------
ITER       Energy         Delta-E        Max-DP      RMS-DP      [F,P]     Damp
               ***  Starting incremental Fock matrix formation  ***
  0   -346.6853333240   0.000000000000 0.00551934  0.00014582  0.0207566 0.7000
                      *** Initiating the SOSCF procedure ***
                      *** Re-Reading the Fockian *** 
                      *** Removing any level shift *** 
ITER      Energy       Delta-E        Grad      Rot      Max-DP    RMS-DP
  1   -346.68660630  -0.0012729753  0.001597  0.001597  0.013141  0.000447
               *** Restarting incremental Fock matrix formation ***
  2   -346.68952151  -0.0029152058  0.001737  0.003547  0.006941  0.000161
  3   -346.68947559   0.0000459174  0.002564  0.001817  0.003703  0.000079
  4   -346.68966225  -0.0001866655  0.000337  0.000337  0.002027  0.000045
  5   -346.68965884   0.0000034148  0.000534  0.000233  0.001436  0.000030
  6   -346.68966441  -0.0000055747  0.000030  0.000056  0.000072  0.000003
  7   -346.68966440   0.0000000140  0.000036  0.000042  0.000038  0.000002
  8   -346.68966446  -0.0000000590  0.000005  0.000023  0.000016  0.000001
  9   -346.68966446   0.0000000002  0.000008  0.000017  0.000013  0.000000
                  ***Gradient check signals convergence***
              ***Rediagonalizing the Fockian in SOSCF/NRSCF***

               *****************************************************
               *                     SUCCESS                       *
               *           SCF CONVERGED AFTER  10 CYCLES          *
               *****************************************************

Total Energy       :         -346.68966446 Eh           -9433.90538 eV
  Last Energy change         ...   -8.9284e-10  Tolerance :   1.0000e-08
  Last MAX-Density change    ...    1.1445e-05  Tolerance :   1.0000e-07
             **** THE GBW FILE WAS UPDATED (ORCA.gbw) ****
             **** DENSITY ORCA.scfp WAS UPDATED ****
             **** ENERGY FILE WAS UPDATED (ORCA.en.tmp) ****
             **** THE GBW FILE WAS UPDATED (ORCA.gbw) ****
             **** DENSITY ORCA.scfp WAS UPDATED ****
Total SCF time: 0 days 0 hours 0 min 19 sec 

Maximum memory used throughout the entire SCF-calculation: 52.2 MB


-------------------------------------------------------------------------------
                          DFT DISPERSION CORRECTION                            
                                                                               
                                 DFTD4 V2.5                                    
-------------------------------------------------------------------------------
Starting D4
-------------------------   ----------------
Dispersion correction           -0.004856685
-------------------------   ----------------

------------------   -----------------
gCP correction             0.006400479
------------------   -----------------

-------------------------   --------------------
FINAL SINGLE POINT ENERGY      -346.688120664532
-------------------------   --------------------

------------------------------------------------------------------------------
                         ORCA SCF GRADIENT CALCULATION
------------------------------------------------------------------------------

Gradient of the Kohn-Sham DFT energy:
Kohn-Sham wavefunction type      ... RKS
Hartree-Fock exchange scaling    ...    0.000
Number of operators              ...    1
Number of atoms                  ...   16
Basis set dimensions             ...  197
Integral neglect threshold       ... 2.5e-11
[...]
 Convergence forced     ConvForced      .... 0
 Energy Change          TolE            ....  1.000e-08 Eh
 1-El. energy change                    ....  1.000e-05 Eh
 Orbital Gradient       TolG            ....  1.000e-05
 Orbital Rotation angle TolX            ....  1.000e-05
 DIIS Error             TolErr          ....  5.000e-07


Diagonalization of the overlap matrix:
Smallest eigenvalue                        ... 3.394e-05
Time for diagonalization                   ...    0.003 sec
Threshold for overlap eigenvalues          ... 1.000e-08
Number of eigenvalues below threshold      ... 0
Time for construction of square roots      ...    0.000 sec
Total time needed                          ...    0.004 sec

---------------------
INITIAL GUESS: MOREAD
---------------------
Guess MOs are being read from file: ORCA.gbw
Input Geometry matches current geometry (good)
Input basis set matches current basis set (good)
MOs were renormalized
MOs were reorthogonalized (Cholesky)
                      ------------------
                      INITIAL GUESS DONE (   0.0 sec)
                      ------------------
-------------------
DFT GRID GENERATION
-------------------

General Integration Accuracy     IntAcc      ... 4.388
Radial Grid Type                 RadialGrid  ... OptM3 with GC (2021)
Angular Grid (max. ang.)         AngularGrid ... 4 (Lebedev-302)
Angular grid pruning method      GridPruning ... 4 (adaptive)
Weight generation scheme         WeightScheme... Becke
Basis function cutoff            BFCut       ... 1.0000e-11
Integration weight cutoff        WCut        ... 1.0000e-14
Angular grids for H and He will be reduced by one unit
Partially contracted basis set               ... off
Rotationally invariant grid construction     ... off

Total number of grid points                  ...    74291
Total number of batches                      ...     1169
Average number of points per batch           ...       63
Average number of grid points per atom       ...     4643
Time for grid setup =    0.513 sec


--------------------
CPCM SOLVATION MODEL
--------------------
CPCM parameters:
  Epsilon                                         ...      36.6000
  Refrac                                          ...       1.3440
  Rsolv                                           ...       1.3000
  Surface type                                    ... GAUSSIAN VDW
  Epsilon function type                           ...         CPCM
Radii:
 Radius for C  used is    3.8550 Bohr (=   2.0400 Ang.)
 Radius for O  used is    3.4469 Bohr (=   1.8240 Ang.)
 Radius for H  used is    2.4944 Bohr (=   1.3200 Ang.)
Calculating surface                               ...        done! (  0.0s)
GEPOL surface points                              ...          914
GEPOL Volume                                      ...     974.2719
GEPOL Surface-area                                ...     552.9517
Calculating surface distance matrix               ...        done! (  0.0s)
Performing Cholesky decomposition & store         ...        done! (  0.0s)
Overall time for CPCM initialization              ...                 0.0s
--------------
SCF ITERATIONS
--------------
ITER       Energy         Delta-E        Max-DP      RMS-DP      [F,P]     Damp
               ***  Starting incremental Fock matrix formation  ***
                      *** Initiating the SOSCF procedure ***
                      *** Re-Reading the Fockian *** 
                      *** Removing any level shift *** 
ITER      Energy       Delta-E        Grad      Rot      Max-DP    RMS-DP
  0   -346.69783349 -346.6978334864  0.000123  0.000123  0.000229  0.000007
               *** Restarting incremental Fock matrix formation ***
  1   -346.69783398  -0.0000004922  0.000039  0.000078  0.000069  0.000003
  2   -346.69783401  -0.0000000355  0.000003  0.000017  0.000014  0.000000
  3   -346.69783401  -0.0000000007  0.000006  0.000013  0.000011  0.000000
                  ***Gradient check signals convergence***
              ***Rediagonalizing the Fockian in SOSCF/NRSCF***

               *****************************************************
               *                     SUCCESS                       *
               *           SCF CONVERGED AFTER   4 CYCLES          *
               *****************************************************


----------------
TOTAL SCF ENERGY
----------------

Total Energy       :         -346.69783401 Eh           -9434.12769 eV

Components:
Nuclear Repulsion  :          345.52524524 Eh            9402.21992 eV
Electronic Energy  :         -692.22307926 Eh          -18836.34761 eV
One Electron Energy:        -1153.47305195 Eh          -31387.59746 eV
Two Electron Energy:          461.24997269 Eh           12551.24985 eV
CPCM Dielectric    :           -0.00855461 Eh              -0.23278 eV

Virial components:
Potential Energy   :         -691.80052906 Eh          -18824.84943 eV
Kinetic Energy     :          345.10269505 Eh            9390.72175 eV
Virial Ratio       :            2.00462222


DFT components:
N(Alpha)           :       29.000015821681 electrons
N(Beta)            :       29.000015821681 electrons
N(Total)           :       58.000031643362 electrons
E(X)               :      -47.549297365407 Eh       
E(C)               :       -1.863065027887 Eh       
E(XC)              :      -49.412362393294 Eh       
DFET-embed. en.    :        0.000000000000 Eh       
CPCM Solvation Model Properties:
Surface-charge          :           -0.02298447
Charge-correction       :           -0.00004535 Eh              -0.00123 eV
Free-energy (cav+disp)  :  This term is not implemented in the current solvation scheme

---------------
SCF CONVERGENCE
---------------

  Last Energy change         ...    7.0497e-10  Tolerance :   1.0000e-08
  Last MAX-Density change    ...    1.2314e-05  Tolerance :   1.0000e-07
  Last RMS-Density change    ...    3.6070e-07  Tolerance :   5.0000e-09
  Last Orbital Gradient      ...    8.8240e-07  Tolerance :   1.0000e-05
  Last Orbital Rotation      ...    3.9243e-06  Tolerance :   1.0000e-05

             **** THE GBW FILE WAS UPDATED (ORCA.gbw) ****
             **** DENSITY ORCA.scfp WAS UPDATED ****
             **** ENERGY FILE WAS UPDATED (ORCA.en.tmp) ****
             **** THE GBW FILE WAS UPDATED (ORCA.gbw) ****
             **** DENSITY ORCA.scfp WAS UPDATED ****
----------------
ORBITAL ENERGIES
----------------

  NO   OCC          E(Eh)            E(eV) 
   0   2.0000     -18.988945      -516.7155 
   1   2.0000     -10.098475      -274.7935 
   2   2.0000     -10.079053      -274.2650 
   3   2.0000     -10.039795      -273.1967 
   4   2.0000     -10.039405      -273.1861 
   5   2.0000     -10.036062      -273.0951 
   6   2.0000     -10.034547      -273.0539 
   7   2.0000     -10.031027      -272.9581 
   8   2.0000      -1.031749       -28.0753 
   9   2.0000      -0.821315       -22.3491 
  10   2.0000      -0.724761       -19.7217 
  11   2.0000      -0.716035       -19.4843 
  12   2.0000      -0.660540       -17.9742 
  13   2.0000      -0.579209       -15.7611 
  14   2.0000      -0.559023       -15.2118 
  15   2.0000      -0.503790       -13.7088 
  16   2.0000      -0.453783       -12.3481 
  17   2.0000      -0.446302       -12.1445 
  18   2.0000      -0.432016       -11.7558 
  19   2.0000      -0.413149       -11.2424 
  20   2.0000      -0.392446       -10.6790 
  21   2.0000      -0.379014       -10.3135 
  22   2.0000      -0.354728        -9.6526 
  23   2.0000      -0.335834        -9.1385 
  24   2.0000      -0.326781        -8.8922 
  25   2.0000      -0.297765        -8.1026 
  26   2.0000      -0.297191        -8.0870 
  27   2.0000      -0.241236        -6.5644 
  28   2.0000      -0.206763        -5.6263 
  29   0.0000      -0.037504        -1.0205 
  30   0.0000      -0.021499        -0.5850 
  31   0.0000       0.066595         1.8121 
  32   0.0000       0.092497         2.5170 
  33   0.0000       0.110477         3.0062 
  34   0.0000       0.123359         3.3568 
  35   0.0000       0.129024         3.5109 
  36   0.0000       0.137324         3.7368 
  37   0.0000       0.140683         3.8282 
  38   0.0000       0.156252         4.2518 
  39   0.0000       0.174273         4.7422 
  40   0.0000       0.178508         4.8575 
  41   0.0000       0.183616         4.9964 
  42   0.0000       0.192822         5.2469 
  43   0.0000       0.209392         5.6978 
  44   0.0000       0.215036         5.8514 
  45   0.0000       0.219924         5.9844 
  46   0.0000       0.221965         6.0400 
  47   0.0000       0.230878         6.2825 
  48   0.0000       0.249488         6.7889 
  49   0.0000       0.261868         7.1258 
  50   0.0000       0.267601         7.2818 
  51   0.0000       0.284254         7.7349 
  52   0.0000       0.284802         7.7498 
  53   0.0000       0.305158         8.3038 
  54   0.0000       0.306395         8.3374 
  55   0.0000       0.326966         8.8972 
  56   0.0000       0.346045         9.4164 
  57   0.0000       0.346256         9.4221 
  58   0.0000       0.349799         9.5185 
  59   0.0000       0.362359         9.8603 
  60   0.0000       0.397786        10.8243 
  61   0.0000       0.410247        11.1634 
  62   0.0000       0.425235        11.5712 
  63   0.0000       0.425992        11.5918 
  64   0.0000       0.463531        12.6133 
  65   0.0000       0.495110        13.4726 
  66   0.0000       0.512920        13.9573 
  67   0.0000       0.521150        14.1812 
  68   0.0000       0.530007        14.4222 
  69   0.0000       0.543336        14.7849 
  70   0.0000       0.557021        15.1573 
  71   0.0000       0.570895        15.5349 
  72   0.0000       0.586814        15.9680 
  73   0.0000       0.595365        16.2007 
  74   0.0000       0.601720        16.3736 
  75   0.0000       0.615477        16.7480 
  76   0.0000       0.655317        17.8321 
  77   0.0000       0.658764        17.9259 
  78   0.0000       0.677285        18.4299 
  79   0.0000       0.700147        19.0520 
  80   0.0000       0.719294        19.5730 
  81   0.0000       0.800929        21.7944 
  82   0.0000       0.877087        23.8668 
  83   0.0000       0.951936        25.9035 
  84   0.0000       1.022253        27.8169 
  85   0.0000       1.030570        28.0432 
  86   0.0000       1.056768        28.7561 
  87   0.0000       1.095529        29.8109 
  88   0.0000       1.117958        30.4212 
  89   0.0000       1.120103        30.4796 
  90   0.0000       1.147595        31.2277 
  91   0.0000       1.181128        32.1401 
  92   0.0000       1.229236        33.4492 
  93   0.0000       1.243313        33.8323 
  94   0.0000       1.285640        34.9841 
  95   0.0000       1.300486        35.3880 
  96   0.0000       1.302881        35.4532 
  97   0.0000       1.308134        35.5961 
  98   0.0000       1.332358        36.2553 
  99   0.0000       1.339921        36.4611 
 100   0.0000       1.350551        36.7504 
 101   0.0000       1.372845        37.3570 
 102   0.0000       1.378273        37.5047 
 103   0.0000       1.421783        38.6887 
 104   0.0000       1.439520        39.1713 
 105   0.0000       1.451046        39.4850 
 106   0.0000       1.458388        39.6847 
 107   0.0000       1.461782        39.7771 
 108   0.0000       1.479684        40.2642 
 109   0.0000       1.486490        40.4495 
 110   0.0000       1.490987        40.5718 
 111   0.0000       1.495399        40.6919 
 112   0.0000       1.506018        40.9808 
 113   0.0000       1.518163        41.3113 
 114   0.0000       1.542350        41.9695 
 115   0.0000       1.585204        43.1356 
 116   0.0000       1.592038        43.3215 
 117   0.0000       1.600821        43.5606 
 118   0.0000       1.616253        43.9805 
 119   0.0000       1.629614        44.3441 
 120   0.0000       1.663876        45.2764 
 121   0.0000       1.737941        47.2918 
 122   0.0000       1.741577        47.3907 
 123   0.0000       1.786048        48.6008 
 124   0.0000       1.815623        49.4056 
 125   0.0000       1.858014        50.5591 
 126   0.0000       1.870059        50.8869 
 127   0.0000       1.981827        53.9283 
 128   0.0000       1.996236        54.3204 
 129   0.0000       2.005247        54.5656 
 130   0.0000       2.065348        56.2010 
 131   0.0000       2.074113        56.4395 
 132   0.0000       2.092504        56.9399 
 133   0.0000       2.104109        57.2557 
 134   0.0000       2.108956        57.3876 
 135   0.0000       2.119299        57.6691 
 136   0.0000       2.162643        58.8485 
 137   0.0000       2.179027        59.2943 
 138   0.0000       2.234442        60.8023 
 139   0.0000       2.262435        61.5640 
 140   0.0000       2.267298        61.6963 
 141   0.0000       2.272673        61.8426 
 142   0.0000       2.276175        61.9379 
 143   0.0000       2.293035        62.3967 
 144   0.0000       2.302554        62.6557 
 145   0.0000       2.310548        62.8732 
 146   0.0000       2.340571        63.6902 
 147   0.0000       2.358895        64.1888 
 148   0.0000       2.359208        64.1973 
 149   0.0000       2.365651        64.3726 
 150   0.0000       2.400865        65.3309 
 151   0.0000       2.440476        66.4087 
 152   0.0000       2.450916        66.6928 
 153   0.0000       2.505214        68.1704 
 154   0.0000       2.535987        69.0077 
 155   0.0000       2.582499        70.2734 
 156   0.0000       2.621591        71.3371 
 157   0.0000       2.667564        72.5881 
 158   0.0000       2.677868        72.8685 
 159   0.0000       2.684443        73.0474 
 160   0.0000       2.710841        73.7657 
 161   0.0000       2.748057        74.7784 
 162   0.0000       2.750158        74.8356 
 163   0.0000       2.794645        76.0462 
 164   0.0000       2.839615        77.2699 
 165   0.0000       2.855631        77.7057 
 166   0.0000       2.923918        79.5639 
 167   0.0000       2.975734        80.9738 
 168   0.0000       3.043244        82.8109 
 169   0.0000       3.051756        83.0425 
 170   0.0000       3.116122        84.7940 
 171   0.0000       3.119487        84.8856 
 172   0.0000       3.155143        85.8558 
 173   0.0000       3.172138        86.3183 
 174   0.0000       3.214158        87.4617 
 175   0.0000       3.236676        88.0744 
 176   0.0000       3.251390        88.4748 
 177   0.0000       3.290476        89.5384 
 178   0.0000       3.361969        91.4838 
 179   0.0000       3.380357        91.9842 
 180   0.0000       3.417193        92.9865 
 181   0.0000       3.514780        95.6420 
 182   0.0000       3.523035        95.8667 
 183   0.0000       3.533998        96.1650 
 184   0.0000       3.611926        98.2855 
 185   0.0000       3.628804        98.7448 
 186   0.0000       3.935761       107.0975 
 187   0.0000       4.047837       110.1473 
 188   0.0000       4.301914       117.0610 
 189   0.0000      21.413490       582.6907 
 190   0.0000      21.937146       596.9401 
 191   0.0000      21.959640       597.5522 
 192   0.0000      21.979715       598.0984 
 193   0.0000      22.160887       603.0284 
 194   0.0000      22.180974       603.5750 
 195   0.0000      22.319595       607.3471 
 196   0.0000      43.709640      1189.3998 
-------
TIMINGS
-------

Total SCF time: 0 days 0 hours 0 min 8 sec 

Total time                  ....       8.861 sec
Sum of individual times     ....       8.721 sec  ( 98.4%)

Fock matrix formation       ....       8.193 sec  ( 92.5%)
  Split-RI-J                ....       0.588 sec  (  7.2% of F)
  XC integration            ....       5.160 sec  ( 63.0% of F)
    Basis function eval.    ....       0.851 sec  ( 16.5% of XC)
    Density eval.           ....       1.129 sec  ( 21.9% of XC)
    XC-Functional eval.     ....       0.572 sec  ( 11.1% of XC)
    XC-Potential eval.      ....       2.505 sec  ( 48.5% of XC)
Diagonalization             ....       0.003 sec  (  0.0%)
Density matrix formation    ....       0.001 sec  (  0.0%)
Population analysis         ....       0.000 sec  (  0.0%)
Initial guess               ....       0.004 sec  (  0.0%)
Orbital Transformation      ....       0.000 sec  (  0.0%)
Orbital Orthonormalization  ....       0.002 sec  (  0.0%)
DIIS solution               ....       0.000 sec  (  0.0%)
SOSCF solution              ....       0.006 sec  (  0.1%)
Grid generation             ....       0.513 sec  (  5.8%)

Maximum memory used throughout the entire SCF-calculation: 51.9 MB


-------------------------------------------------------------------------------
                          DFT DISPERSION CORRECTION                            
                                                                               
                                 DFTD4 V2.5                                    
-------------------------------------------------------------------------------
The R2SCAN3C composite method is recognized
Using three-body term ABC
Active option DFTDOPT                   ...         5   

Starting D4
-------------------------   ----------------
Dispersion correction           -0.004817941
-------------------------   ----------------

------------------   -----------------
gCP correction             0.006709832
------------------   -----------------

-------------------------   --------------------
FINAL SINGLE POINT ENERGY      -346.695942122962
-------------------------   --------------------

                                *** OPTIMIZATION RUN DONE ***

                            ***************************************
                            *     ORCA property calculations      *
                            ***************************************

                                    ---------------------
                                    Active property flags
                                    ---------------------
   (+) Dipole Moment


------------------------------------------------------------------------------
                       ORCA ELECTRIC PROPERTIES CALCULATION
------------------------------------------------------------------------------

Dipole Moment Calculation                       ... on
Quadrupole Moment Calculation                   ... off
Polarizability Calculation                      ... off
GBWName                                         ... ORCA.gbw
Electron density                                ... ORCA.scfp
The origin for moment calculation is the CENTER OF MASS  = (-0.695237,  1.823133  0.657435)

-------------
DIPOLE MOMENT
-------------
                                X             Y             Z
Electronic contribution:     -1.38751      -1.85988      -0.99802
Nuclear contribution   :      1.72600       2.46849       1.29194
                        -----------------------------------------
Total Dipole Moment    :      0.33849       0.60860       0.29392
                        -----------------------------------------
Magnitude (a.u.)       :      0.75588
Magnitude (Debye)      :      1.92130



--------------------
Rotational spectrum 
--------------------
 
Rotational constants in cm-1:     0.167729     0.052248     0.040146 
Rotational constants in MHz :  5028.380929  1566.366149  1203.548077 

 Dipole components along the rotational axes: 
x,y,z [a.u.] :    -0.436998    -0.616756    -0.002213 
x,y,z [Debye]:    -1.110760    -1.567668    -0.005624 

 

Timings for individual modules:

Sum of individual times         ...      482.780 sec (=   8.046 min)
GTO integral calculation        ...        2.721 sec (=   0.045 min)   0.6 %
SCF iterations                  ...      373.411 sec (=   6.224 min)  77.3 %
SCF Gradient evaluation         ...      105.604 sec (=   1.760 min)  21.9 %
Geometry relaxation             ...        1.044 sec (=   0.017 min)   0.2 %
                             ****ORCA TERMINATED NORMALLY****
TOTAL RUN TIME: 0 days 0 hours 8 minutes 4 seconds 790 msec
