
                                 *****************
                                 * O   R   C   A *
                                 *****************

                                            #,                                       
                                            ###                                      
                                            ####                                     
                                            #####                                    
                                            ######                                   
                                           ########,                                 
                                     ,,################,,,,,                         
                               ,,#################################,,                 
                          ,,##########################################,,             
                       ,#########################################, ''#####,          
                    ,#############################################,,   '####,        
                  ,##################################################,,,,####,       
                ,###########''''           ''''###############################       
              ,#####''   ,,,,##########,,,,          '''####'''          '####       
            ,##' ,,,,###########################,,,                        '##       
           ' ,,###''''                  '''############,,,                           
         ,,##''                                '''############,,,,        ,,,,,,###''
      ,#''                                            '''#######################'''  
     '                                                          ''''####''''         
             ,#######,   #######,   ,#######,      ##                                
            ,#'     '#,  ##    ##  ,#'     '#,    #''#        ######   ,####,        
            ##       ##  ##   ,#'  ##            #'  '#       #        #'  '#        
            ##       ##  #######   ##           ,######,      #####,   #    #        
            '#,     ,#'  ##    ##  '#,     ,#' ,#      #,         ##   #,  ,#        
             '#######'   ##     ##  '#######'  #'      '#     #####' # '####'        



                  #######################################################
                  #                        -***-                        #
                  #          Department of theory and spectroscopy      #
                  #    Directorship and core code : Frank Neese         #
                  #        Max Planck Institute fuer Kohlenforschung    #
                  #                Kaiser Wilhelm Platz 1               #
                  #                 D-45470 Muelheim/Ruhr               #
                  #                      Germany                        #
                  #                                                     #
                  #                  All rights reserved                #
                  #                        -***-                        #
                  #######################################################


                         Program Version 5.0.4 -  RELEASE  -


 With contributions from (in alphabetic order):
   Daniel Aravena         : Magnetic Suceptibility
   Michael Atanasov       : Ab Initio Ligand Field Theory (pilot matlab implementation)
   Alexander A. Auer      : GIAO ZORA, VPT2 properties, NMR spectrum
   Ute Becker             : Parallelization
   Giovanni Bistoni       : ED, misc. LED, open-shell LED, HFLD
   Martin Brehm           : Molecular dynamics
   Dmytro Bykov           : SCF Hessian
   Vijay G. Chilkuri      : MRCI spin determinant printing, contributions to CSF-ICE
   Dipayan Datta          : RHF DLPNO-CCSD density
   Achintya Kumar Dutta   : EOM-CC, STEOM-CC
   Dmitry Ganyushin       : Spin-Orbit,Spin-Spin,Magnetic field MRCI
   Miquel Garcia          : C-PCM and meta-GGA Hessian, CC/C-PCM, Gaussian charge scheme
   Yang Guo               : DLPNO-NEVPT2, F12-NEVPT2, CIM, IAO-localization
   Andreas Hansen         : Spin unrestricted coupled pair/coupled cluster methods
   Benjamin Helmich-Paris : MC-RPA, TRAH-SCF, COSX integrals
   Lee Huntington         : MR-EOM, pCC
   Robert Izsak           : Overlap fitted RIJCOSX, COSX-SCS-MP3, EOM
   Marcus Kettner         : VPT2
   Christian Kollmar      : KDIIS, OOCD, Brueckner-CCSD(T), CCSD density, CASPT2, CASPT2-K
   Simone Kossmann        : Meta GGA functionals, TD-DFT gradient, OOMP2, MP2 Hessian
   Martin Krupicka        : Initial AUTO-CI
   Lucas Lang             : DCDCAS
   Marvin Lechner         : AUTO-CI (C++ implementation), FIC-MRCC
   Dagmar Lenk            : GEPOL surface, SMD
   Dimitrios Liakos       : Extrapolation schemes; Compound Job, initial MDCI parallelization
   Dimitrios Manganas     : Further ROCIS development; embedding schemes
   Dimitrios Pantazis     : SARC Basis sets
   Anastasios Papadopoulos: AUTO-CI, single reference methods and gradients
   Taras Petrenko         : DFT Hessian,TD-DFT gradient, ASA, ECA, R-Raman, ABS, FL, XAS/XES, NRVS
   Peter Pinski           : DLPNO-MP2, DLPNO-MP2 Gradient
   Christoph Reimann      : Effective Core Potentials
   Marius Retegan         : Local ZFS, SOC
   Christoph Riplinger    : Optimizer, TS searches, QM/MM, DLPNO-CCSD(T), (RO)-DLPNO pert. Triples
   Tobias Risthaus        : Range-separated hybrids, TD-DFT gradient, RPA, STAB
   Michael Roemelt        : Original ROCIS implementation
   Masaaki Saitow         : Open-shell DLPNO-CCSD energy and density
   Barbara Sandhoefer     : DKH picture change effects
   Avijit Sen             : IP-ROCIS
   Kantharuban Sivalingam : CASSCF convergence, NEVPT2, FIC-MRCI
   Bernardo de Souza      : ESD, SOC TD-DFT
   Georgi Stoychev        : AutoAux, RI-MP2 NMR, DLPNO-MP2 response
   Willem Van den Heuvel  : Paramagnetic NMR
   Boris Wezisla          : Elementary symmetry handling
   Frank Wennmohs         : Technical directorship


 We gratefully acknowledge several colleagues who have allowed us to
 interface, adapt or use parts of their codes:
   Stefan Grimme, W. Hujo, H. Kruse, P. Pracht,  : VdW corrections, initial TS optimization,
                  C. Bannwarth, S. Ehlert          DFT functionals, gCP, sTDA/sTD-DF
   Ed Valeev, F. Pavosevic, A. Kumar             : LibInt (2-el integral package), F12 methods
   Garnet Chan, S. Sharma, J. Yang, R. Olivares  : DMRG
   Ulf Ekstrom                                   : XCFun DFT Library
   Mihaly Kallay                                 : mrcc  (arbitrary order and MRCC methods)
   Jiri Pittner, Ondrej Demel                    : Mk-CCSD
   Frank Weinhold                                : gennbo (NPA and NBO analysis)
   Christopher J. Cramer and Donald G. Truhlar   : smd solvation model
   Lars Goerigk                                  : TD-DFT with DH, B97 family of functionals
   V. Asgeirsson, H. Jonsson                     : NEB implementation
   FAccTs GmbH                                   : IRC, NEB, NEB-TS, DLPNO-Multilevel, CI-OPT
                                                   MM, QMMM, 2- and 3-layer-ONIOM, Crystal-QMMM,
                                                   LR-CPCM, SF, NACMEs, symmetry and pop. for TD-DFT,
                                                   nearIR, NL-DFT gradient (VV10), updates on ESD,
                                                   ML-optimized integration grids
   S Lehtola, MJT Oliveira, MAL Marques          : LibXC Library
   Liviu Ungur et al                             : ANISO software


 Your calculation uses the libint2 library for the computation of 2-el integrals
 For citations please refer to: http://libint.valeyev.net

 Your ORCA version has been built with support for libXC version: 5.1.0
 For citations please refer to: https://tddft.org/programs/libxc/

 This ORCA versions uses:
   CBLAS   interface :  Fast vector & matrix operations
   LAPACKE interface :  Fast linear algebra routines
   SCALAPACK package :  Parallel linear algebra routines
   Shared memory     :  Shared parallel matrices
   BLAS/LAPACK       :  OpenBLAS 0.3.15  USE64BITINT DYNAMIC_ARCH NO_AFFINITY Haswell SINGLE_THREADED
        Core in use  :  Haswell
   Copyright (c) 2011-2014, The OpenBLAS Project


Your calculation utilizes the geometrical counterpoise correction gCP
Please cite in your paper:
H.Kruse, S. Grimme J.Chem.Phys., 136, (2012), 154101 
   

Your calculation utilizes the atom-pairwise dispersion correction
based on tight binding partial charges (D4)
Cite in your paper:
E.Caldeweyher, C.Bannwarth, S.Grimme, J.Chem.Phys., (2017), 147, 034112.
E.Caldeweyher, S.Ehlert, A.Hansen, H.Neugebauer, S.Grimme, J.Chem.Phys., (2018), in progress.
   

================================================================================

----- Orbital basis set information -----
Your calculation utilizes the basis: def2-mTZVPP
   Stefan Grimme, Andreas Hansen, Sebastian Ehlert, and Jan-Michael Mewes 
   J. Chem. Phys. 154, 000000 (2021). DOI: 10.1063/5.0040021

----- AuxJ basis set information -----
Your calculation utilizes the basis: def2-mTZVPP/J
   Stefan Grimme, Andreas Hansen, Sebastian Ehlert, and Jan-Michael Mewes 
   J. Chem. Phys. 154, 000000 (2021). DOI: 10.1063/5.0040021

================================================================================
                                        WARNINGS
                       Please study these warnings very carefully!
================================================================================

WARNING: Old DensityContainer found on disk!
         Will remove this file - 
         If you want to keep old densities, please start your calculation with a different basename. 

Using LibXC functional ID 497 : Re-regularized SCAN exchange by Furness et al
[ 1]  J. W. Furness, A. D. Kaplan, J. Ning, J. P. Perdew, and J. Sun, J. Phys. Chem. Lett. 11, 8208 (2020)
[ 2]  J. W. Furness, A. D. Kaplan, J. Ning, J. P. Perdew, and J. Sun, J. Phys. Chem. Lett. 11, 9248 (2020)
Using LibXC functional ID 498 : Re-regularized SCAN correlation by Furness et al
[ 1]  J. W. Furness, A. D. Kaplan, J. Ning, J. P. Perdew, and J. Sun, J. Phys. Chem. Lett. 11, 8208 (2020)
[ 2]  J. W. Furness, A. D. Kaplan, J. Ning, J. P. Perdew, and J. Sun, J. Phys. Chem. Lett. 11, 9248 (2020)
Using LibXC functional ID 497 : Re-regularized SCAN exchange by Furness et al
[ 1]  J. W. Furness, A. D. Kaplan, J. Ning, J. P. Perdew, and J. Sun, J. Phys. Chem. Lett. 11, 8208 (2020)
[ 2]  J. W. Furness, A. D. Kaplan, J. Ning, J. P. Perdew, and J. Sun, J. Phys. Chem. Lett. 11, 9248 (2020)
Using LibXC functional ID 498 : Re-regularized SCAN correlation by Furness et al
[ 1]  J. W. Furness, A. D. Kaplan, J. Ning, J. P. Perdew, and J. Sun, J. Phys. Chem. Lett. 11, 8208 (2020)
[ 2]  J. W. Furness, A. D. Kaplan, J. Ning, J. P. Perdew, and J. Sun, J. Phys. Chem. Lett. 11, 9248 (2020)

INFO   : the flag for use of the SHARK integral package has been found!

================================================================================
                                       INPUT FILE
================================================================================
NAME = ORCA.inp
|  1> ! R2SCAN-3C DEF2-MTZVPP freq   cpcm(acetonitrile) nopop 
|  2> %pal nprocs 44 end  %maxcore 4000 %geom maxiter 1000 end 
|  3> *xyz 0 1 
|  4> N   1.044032 0.094747 -0.057372
|  5> N   -0.042956 -0.668222 -0.433352
|  6> C   2.273204 -0.358181 -0.528282
|  7> C   0.839527 1.493782 0.40834
|  8> C   -0.210659 -1.856881 0.265143
|  9> C   -0.598725 -0.452463 -1.784307
| 10> O   2.406473 -1.394994 -1.152797
| 11> O   0.442979 -2.166686 1.24664
| 12> O   3.240308 0.493281 -0.165648
| 13> C   4.677116 0.215941 -0.456016
| 14> C   4.894122 0.171568 -1.961869
| 15> C   5.367895 1.426218 0.15767
| 16> C   5.101816 -1.066074 0.245788
| 17> H   4.625634 -1.943732 -0.194538
| 18> H   6.187277 -1.172259 0.150565
| 19> H   4.854588 -1.01534 1.311251
| 20> H   6.447173 1.340528 0.002209
| 21> H   5.018361 2.350533 -0.31292
| 22> H   5.171522 1.479053 1.232834
| 23> H   4.492529 1.075915 -2.430566
| 24> H   5.970636 0.133734 -2.15748
| 25> H   4.426413 -0.706083 -2.410677
| 26> O   -1.200653 -2.568136 -0.29095
| 27> C   -1.737376 -3.785427 0.372558
| 28> C   -2.860877 -4.194381 -0.571666
| 29> C   -0.667148 -4.867087 0.438882
| 30> C   -2.291736 -3.415614 1.742358
| 31> H   0.124114 -4.607077 1.143293
| 32> H   -1.135339 -5.80176 0.764557
| 33> H   -0.230133 -5.030458 -0.551668
| 34> H   -1.497384 -3.134877 2.436528
| 35> H   -3.002701 -2.586984 1.652839
| 36> H   -2.823504 -4.28059 2.151692
| 37> H   -3.604444 -3.395298 -0.654188
| 38> H   -2.465302 -4.416593 -1.567709
| 39> H   -3.351567 -5.091064 -0.18234
| 40> C   1.882611 1.784093 1.50833
| 41> C   0.961325 2.490423 -0.740502
| 42> O   2.379537 2.8713 1.690865
| 43> H   2.070361 0.926306 2.186628
| 44> H   1.891241 2.311278 -1.28541
| 45> H   0.118263 2.394532 -1.429616
| 46> H   0.989902 3.512536 -0.357137
| 47> C   -2.479968 2.81108 1.783038
| 48> C   -1.330517 2.686524 1.008128
| 49> C   -0.463346 1.608305 1.198435
| 50> C   -0.754333 0.675283 2.201862
| 51> C   -1.905697 0.800458 2.971234
| 52> C   -2.7753 1.868551 2.763432
| 53> H   -3.151676 3.64718 1.609449
| 54> H   -1.132047 3.428683 0.243238
| 55> H   -0.090122 -0.166555 2.367486
| 56> H   -2.121611 0.060715 3.73734
| 57> H   -3.676093 1.966502 3.362992
| 58> C   -1.873074 0.361053 -1.812202
| 59> H   0.175638 0.044804 -2.378143
| 60> H   -0.775959 -1.429949 -2.244921
| 61> C   -2.066338 1.297164 -2.830345
| 62> C   -3.24678 2.03362 -2.904166
| 63> H   -1.282045 1.458216 -3.567377
| 64> C   -4.250263 1.839057 -1.958341
| 65> H   -5.170099 2.415075 -2.010592
| 66> C   -4.06291 0.906436 -0.939816
| 67> H   -3.378217 2.764011 -3.697972
| 68> C   -2.882777 0.173635 -0.866009
| 69> H   -2.739007 -0.534876 -0.055853
| 70> H   -4.835851 0.755733 -0.190814
| 71> *
| 72> 
| 73>                          ****END OF INPUT****
================================================================================

                       ****************************
                       * Single Point Calculation *
                       ****************************

---------------------------------
CARTESIAN COORDINATES (ANGSTROEM)
---------------------------------
  N      1.044032    0.094747   -0.057372
  N     -0.042956   -0.668222   -0.433352
  C      2.273204   -0.358181   -0.528282
  C      0.839527    1.493782    0.408340
  C     -0.210659   -1.856881    0.265143
  C     -0.598725   -0.452463   -1.784307
  O      2.406473   -1.394994   -1.152797
  O      0.442979   -2.166686    1.246640
  O      3.240308    0.493281   -0.165648
  C      4.677116    0.215941   -0.456016
  C      4.894122    0.171568   -1.961869
  C      5.367895    1.426218    0.157670
  C      5.101816   -1.066074    0.245788
  H      4.625634   -1.943732   -0.194538
  H      6.187277   -1.172259    0.150565
  H      4.854588   -1.015340    1.311251
  H      6.447173    1.340528    0.002209
  H      5.018361    2.350533   -0.312920
  H      5.171522    1.479053    1.232834
  H      4.492529    1.075915   -2.430566
  H      5.970636    0.133734   -2.157480
  H      4.426413   -0.706083   -2.410677
  O     -1.200653   -2.568136   -0.290950
  C     -1.737376   -3.785427    0.372558
  C     -2.860877   -4.194381   -0.571666
  C     -0.667148   -4.867087    0.438882
  C     -2.291736   -3.415614    1.742358
  H      0.124114   -4.607077    1.143293
  H     -1.135339   -5.801760    0.764557
  H     -0.230133   -5.030458   -0.551668
  H     -1.497384   -3.134877    2.436528
  H     -3.002701   -2.586984    1.652839
  H     -2.823504   -4.280590    2.151692
  H     -3.604444   -3.395298   -0.654188
  H     -2.465302   -4.416593   -1.567709
  H     -3.351567   -5.091064   -0.182340
  C      1.882611    1.784093    1.508330
  C      0.961325    2.490423   -0.740502
  O      2.379537    2.871300    1.690865
  H      2.070361    0.926306    2.186628
  H      1.891241    2.311278   -1.285410
  H      0.118263    2.394532   -1.429616
  H      0.989902    3.512536   -0.357137
  C     -2.479968    2.811080    1.783038
  C     -1.330517    2.686524    1.008128
  C     -0.463346    1.608305    1.198435
  C     -0.754333    0.675283    2.201862
  C     -1.905697    0.800458    2.971234
  C     -2.775300    1.868551    2.763432
  H     -3.151676    3.647180    1.609449
  H     -1.132047    3.428683    0.243238
  H     -0.090122   -0.166555    2.367486
  H     -2.121611    0.060715    3.737340
  H     -3.676093    1.966502    3.362992
  C     -1.873074    0.361053   -1.812202
  H      0.175638    0.044804   -2.378143
  H     -0.775959   -1.429949   -2.244921
  C     -2.066338    1.297164   -2.830345
  C     -3.246780    2.033620   -2.904166
  H     -1.282045    1.458216   -3.567377
  C     -4.250263    1.839057   -1.958341
  H     -5.170099    2.415075   -2.010592
  C     -4.062910    0.906436   -0.939816
  H     -3.378217    2.764011   -3.697972
  C     -2.882777    0.173635   -0.866009
  H     -2.739007   -0.534876   -0.055853
  H     -4.835851    0.755733   -0.190814

----------------------------
CARTESIAN COORDINATES (A.U.)
----------------------------
  NO LB      ZA    FRAG     MASS         X           Y           Z
   0 N     7.0000    0    14.007    1.972935    0.179046   -0.108417
   1 N     7.0000    0    14.007   -0.081175   -1.262757   -0.818917
   2 C     6.0000    0    12.011    4.295733   -0.676864   -0.998308
   3 C     6.0000    0    12.011    1.586476    2.822839    0.771651
   4 C     6.0000    0    12.011   -0.398088   -3.508997    0.501048
   5 C     6.0000    0    12.011   -1.131426   -0.855031   -3.371852
   6 O     8.0000    0    15.999    4.547575   -2.636157   -2.178471
   7 O     8.0000    0    15.999    0.837109   -4.094443    2.355808
   8 O     8.0000    0    15.999    6.123295    0.932166   -0.313029
   9 C     6.0000    0    12.011    8.838468    0.408069   -0.861745
  10 C     6.0000    0    12.011    9.248550    0.324217   -3.707395
  11 C     6.0000    0    12.011   10.143851    2.695161    0.297953
  12 C     6.0000    0    12.011    9.641035   -2.014588    0.464472
  13 H     1.0000    0     1.008    8.741181   -3.673121   -0.367624
  14 H     1.0000    0     1.008   11.692259   -2.215248    0.284527
  15 H     1.0000    0     1.008    9.173842   -1.918715    2.477905
  16 H     1.0000    0     1.008   12.183391    2.533231    0.004174
  17 H     1.0000    0     1.008    9.483328    4.441864   -0.591333
  18 H     1.0000    0     1.008    9.772760    2.795005    2.329719
  19 H     1.0000    0     1.008    8.489649    2.033185   -4.593104
  20 H     1.0000    0     1.008   11.282867    0.252721   -4.077046
  21 H     1.0000    0     1.008    8.364708   -1.334303   -4.555519
  22 O     8.0000    0    15.999   -2.268905   -4.853074   -0.549816
  23 C     6.0000    0    12.011   -3.283165   -7.153420    0.704033
  24 C     6.0000    0    12.011   -5.406274   -7.926231   -1.080292
  25 C     6.0000    0    12.011   -1.260727   -9.197461    0.829367
  26 C     6.0000    0    12.011   -4.330753   -6.454575    3.292579
  27 H     1.0000    0     1.008    0.234541   -8.706114    2.160511
  28 H     1.0000    0     1.008   -2.145480  -10.963737    1.444803
  29 H     1.0000    0     1.008   -0.434888   -9.506188   -1.042501
  30 H     1.0000    0     1.008   -2.829646   -5.924059    4.604371
  31 H     1.0000    0     1.008   -5.674283   -4.888691    3.123413
  32 H     1.0000    0     1.008   -5.335649   -8.089143    4.066109
  33 H     1.0000    0     1.008   -6.811412   -6.416183   -1.236236
  34 H     1.0000    0     1.008   -4.658746   -8.346151   -2.962541
  35 H     1.0000    0     1.008   -6.333544   -9.620717   -0.344573
  36 C     6.0000    0    12.011    3.557619    3.371447    2.850331
  37 C     6.0000    0    12.011    1.816641    4.706217   -1.399346
  38 O     8.0000    0    15.999    4.496673    5.425971    3.195272
  39 H     1.0000    0     1.008    3.912415    1.750465    4.132128
  40 H     1.0000    0     1.008    3.573928    4.367682   -2.429073
  41 H     1.0000    0     1.008    0.223485    4.525010   -2.701583
  42 H     1.0000    0     1.008    1.870644    6.637731   -0.674891
  43 C     6.0000    0    12.011   -4.686460    5.312171    3.369454
  44 C     6.0000    0    12.011   -2.514313    5.076795    1.905086
  45 C     6.0000    0    12.011   -0.875597    3.039256    2.264714
  46 C     6.0000    0    12.011   -1.425483    1.276100    4.160916
  47 C     6.0000    0    12.011   -3.601245    1.512646    5.614819
  48 C     6.0000    0    12.011   -5.244557    3.531050    5.222130
  49 H     1.0000    0     1.008   -5.955805    6.892171    3.041418
  50 H     1.0000    0     1.008   -2.139259    6.479272    0.459653
  51 H     1.0000    0     1.008   -0.170306   -0.314743    4.473900
  52 H     1.0000    0     1.008   -4.009264    0.114735    7.062549
  53 H     1.0000    0     1.008   -6.946809    3.716150    6.355134
  54 C     6.0000    0    12.011   -3.539597    0.682291   -3.424565
  55 H     1.0000    0     1.008    0.331908    0.084667   -4.494039
  56 H     1.0000    0     1.008   -1.466350   -2.702212   -4.242286
  57 C     6.0000    0    12.011   -3.904813    2.451285   -5.348577
  58 C     6.0000    0    12.011   -6.135525    3.842985   -5.488078
  59 H     1.0000    0     1.008   -2.422714    2.755629   -6.741366
  60 C     6.0000    0    12.011   -8.031833    3.475314   -3.700728
  61 H     1.0000    0     1.008   -9.770071    4.563830   -3.799468
  62 C     6.0000    0    12.011   -7.677787    1.712916   -1.775995
  63 H     1.0000    0     1.008   -6.383905    5.223224   -6.988154
  64 C     6.0000    0    12.011   -5.447659    0.328123   -1.636520
  65 H     1.0000    0     1.008   -5.175973   -1.010769   -0.105547
  66 H     1.0000    0     1.008   -9.138434    1.428128   -0.360586

--------------------------------
INTERNAL COORDINATES (ANGSTROEM)
--------------------------------
 N      0   0   0     0.000000000000     0.00000000     0.00000000
 N      1   0   0     1.380226636283     0.00000000     0.00000000
 C      1   2   0     1.392035849706   115.04888618     0.00000000
 C      1   2   3     1.488626512324   119.77174719   160.91768763
 C      2   1   3     1.388859164752   115.54361542    76.97088370
 C      2   1   3     1.476655186381   117.70081105   279.06885815
 O      3   1   2     1.217686662715   123.17366981   355.41185919
 O      5   2   1     1.219244903241   123.88953377     8.12308591
 O      3   1   2     1.338574279678   109.83703636   176.65350069
 C      9   3   1     1.491860677104   121.65791683   175.90474743
 C     10   9   3     1.522055788982   109.59050849    63.36220461
 C     10   9   3     1.522680711826   102.16419984   181.04687060
 C     10   9   3     1.521992577065   109.60825949   298.72841669
 H     13  10   9     1.091292741827   111.69208103    68.82025310
 H     13  10   9     1.094791421447   108.55747045   188.57473545
 H     13  10   9     1.094946129775   110.28308308   307.00311692
 H     12  10   9     1.093778725294   109.15302404   180.29421719
 H     12  10   9     1.094526009047   110.67522984   299.85352986
 H     12  10   9     1.094226447885   110.66923299    60.71186966
 H     11  10   9     1.094896027880   110.31269608    52.33456590
 H     11  10   9     1.094795627993   108.54035136   170.74962481
 H     11  10   9     1.091078185716   111.67235671   290.53219927
 O      5   2   1     1.339854924874   109.56093966   186.89603168
 C     23   5   2     1.486644484560   121.07676323   189.48164305
 C     24  23   5     1.523501504198   102.08857825   177.23485504
 C     24  23   5     1.523080825354   110.31959270   295.00643685
 C     24  23   5     1.523295343841   109.50811749    59.84271197
 H     26  24  23     1.090823363183   111.62600607    70.09313829
 H     26  24  23     1.094934077940   108.58577200   189.97839445
 H     26  24  23     1.094925338261   110.30548365   308.39184804
 H     27  24  23     1.091641127831   111.68102989   290.92638489
 H     27  24  23     1.095496489947   110.26308917    52.59234477
 H     27  24  23     1.094767103066   108.73431070   171.11201512
 H     25  24  23     1.094639394898   110.59149884   300.15321797
 H     25  24  23     1.094513321718   110.60880663    60.97179040
 H     25  24  23     1.093796970587   109.28587399   180.53324265
 C      4   1   2     1.543464514615   107.87176254   145.14911692
 C      4   1   2     1.525767340275   111.55327071   267.41391077
 O     37   4   1     1.209245027507   123.66952265   147.17274753
 H     37   4   1     1.109566030785   113.86704652   321.66680304
 H     38   4   1     1.092593898274   109.65543908   308.94967002
 H     38   4   1     1.093081298313   110.84366097    69.49777012
 H     38   4   1     1.092016644984   110.43509939   190.25432181
 C      4   1   2     3.826763079553   123.71540674    21.74858432
 C     44   4   1     1.391846725267    18.70516720   234.73493350
 C     45  44   4     1.396695567921   120.39575570     3.44295023
 C     46  45  44     1.400738816119   118.87087838   358.49186632
 C     47  46  45     1.390410412614   120.56034667     1.71834253
 C     44   4   1     1.391673202049   101.77189008    52.10163661
 H     44   4   1     1.086456620480   138.05736605   231.60068342
 H     45  44   4     1.084088111862   118.86508132   182.22763081
 H     47  46  45     1.085033999532   119.93227176   180.26719647
 H     48  47  46     1.086626414496   119.56264717   179.26839482
 H     49  44   4     1.086505692967   120.24032620   179.32543106
 C      6   2   1     1.512134844213   114.37268169   257.13985888
 H      6   2   1     1.095241398028   107.23418747    19.35945082
 H      6   2   1     1.095014167921   108.38047801   134.50113950
 C     55   6   2     1.396520657372   119.38670846   140.73968276
 C     58  55   6     1.393291173926   120.67630126   178.13378661
 H     58  55   6     1.088241437171   119.55326737   357.56936392
 C     59  58  55     1.392629822632   120.04349065   359.89761939
 H     61  59  58     1.086565768935   120.21691299   179.72147678
 C     61  59  58     1.393655714972   119.53649758     0.11527454
 H     59  58  55     1.086680571045   119.76531633   179.50118992
 C     63  61  59     1.391099808259   120.35363386     0.00000000
 H     65  63  61     1.085822450660   119.71207063   178.69165413
 H     63  61  59     1.086808713479   120.05656620   179.31826826

---------------------------
INTERNAL COORDINATES (A.U.)
---------------------------
 N      0   0   0     0.000000000000     0.00000000     0.00000000
 N      1   0   0     2.608250345318     0.00000000     0.00000000
 C      1   2   0     2.630566524546   115.04888618     0.00000000
 C      1   2   3     2.813096423987   119.77174719   160.91768763
 C      2   1   3     2.624563459967   115.54361542    76.97088370
 C      2   1   3     2.790473896495   117.70081105   279.06885815
 O      3   1   2     2.301094309461   123.17366981   355.41185919
 O      5   2   1     2.304038957304   123.88953377     8.12308591
 O      3   1   2     2.529538798503   109.83703636   176.65350069
 C      9   3   1     2.819208109692   121.65791683   175.90474743
 C     10   9   3     2.876268601726   109.59050849    63.36220461
 C     10   9   3     2.877449534755   102.16419984   181.04687060
 C     10   9   3     2.876149148514   109.60825949   298.72841669
 H     13  10   9     2.062244413989   111.69208103    68.82025310
 H     13  10   9     2.068855960302   108.55747045   188.57473545
 H     13  10   9     2.069148316672   110.28308308   307.00311692
 H     12  10   9     2.066942241914   109.15302404   180.29421719
 H     12  10   9     2.068354403553   110.67522984   299.85352986
 H     12  10   9     2.067788314995   110.66923299    60.71186966
 H     11  10   9     2.069053637811   110.31269608    52.33456590
 H     11  10   9     2.068863909521   108.54035136   170.74962481
 H     11  10   9     2.061838961700   111.67235671   290.53219927
 O      5   2   1     2.531958867198   109.56093966   186.89603168
 C     23   5   2     2.809350934324   121.07676323   189.48164305
 C     24  23   5     2.879000607551   102.08857825   177.23485504
 C     24  23   5     2.878205639745   110.31959270   295.00643685
 C     24  23   5     2.878611020938   109.50811749    59.84271197
 H     26  24  23     2.061357416898   111.62600607    70.09313829
 H     26  24  23     2.069125542005   108.58577200   189.97839445
 H     26  24  23     2.069109026404   110.30548365   308.39184804
 H     27  24  23     2.062902768126   111.68102989   290.92638489
 H     27  24  23     2.070188346672   110.26308917    52.59234477
 H     27  24  23     2.068810005221   108.73431070   171.11201512
 H     25  24  23     2.068568671758   110.59149884   300.15321797
 H     25  24  23     2.068330427975   110.60880663    60.97179040
 H     25  24  23     2.066976720522   109.28587399   180.53324265
 C      4   1   2     2.916725230049   107.87176254   145.14911692
 C      4   1   2     2.883282417201   111.55327071   267.41391077
 O     37   4   1     2.285141930794   123.66952265   147.17274753
 H     37   4   1     2.096775925687   113.86704652   321.66680304
 H     38   4   1     2.064703243331   109.65543908   308.94967002
 H     38   4   1     2.065624295922   110.84366097    69.49777012
 H     38   4   1     2.063612392704   110.43509939   190.25432181
 C      4   1   2     7.231534199757   123.71540674    21.74858432
 C     44   4   1     2.630209131150    18.70516720   234.73493350
 C     45  44   4     2.639372115833   120.39575570     3.44295023
 C     46  45  44     2.647012747618   118.87087838   358.49186632
 C     47  46  45     2.627494893593   120.56034667     1.71834253
 C     44   4   1     2.629881219790   101.77189008    52.10163661
 H     44   4   1     2.053105469093   138.05736605   231.60068342
 H     45  44   4     2.048629636459   118.86508132   182.22763081
 H     47  46  45     2.050417105109   119.93227176   180.26719647
 H     48  47  46     2.053426333283   119.56264717   179.26839482
 H     49  44   4     2.053198202654   120.24032620   179.32543106
 C      6   2   1     2.857520733122   114.37268169   257.13985888
 H      6   2   1     2.069706292806   107.23418747    19.35945082
 H      6   2   1     2.069276890135   108.38047801   134.50113950
 C     55   6   2     2.639041582796   119.38670846   140.73968276
 C     58  55   6     2.632938743530   120.67630126   178.13378661
 H     58  55   6     2.056478283839   119.55326737   357.56936392
 C     59  58  55     2.631688970705   120.04349065   359.89761939
 H     61  59  58     2.053311729780   120.21691299   179.72147678
 C     61  59  58     2.633627626272   119.53649758     0.11527454
 H     59  58  55     2.053528674328   119.76531633   179.50118992
 C     63  61  59     2.628797662560   120.35363386     0.00000000
 H     65  63  61     2.051907061810   119.71207063   178.69165413
 H     63  61  59     2.053770828435   120.05656620   179.31826826

---------------------
BASIS SET INFORMATION
---------------------
There are 4 groups of distinct atoms

 Group   1 Type N   : 11s6p2d contracted to 5s3p2d pattern {62111/411/11}
 Group   2 Type C   : 11s6p1d contracted to 5s3p1d pattern {62111/411/1}
 Group   3 Type O   : 11s6p2d contracted to 5s3p2d pattern {62111/411/11}
 Group   4 Type H   : 4s1p contracted to 2s1p pattern {31/1}

Atom   0N    basis set group =>   1
Atom   1N    basis set group =>   1
Atom   2C    basis set group =>   2
Atom   3C    basis set group =>   2
Atom   4C    basis set group =>   2
Atom   5C    basis set group =>   2
Atom   6O    basis set group =>   3
Atom   7O    basis set group =>   3
Atom   8O    basis set group =>   3
Atom   9C    basis set group =>   2
Atom  10C    basis set group =>   2
Atom  11C    basis set group =>   2
Atom  12C    basis set group =>   2
Atom  13H    basis set group =>   4
Atom  14H    basis set group =>   4
Atom  15H    basis set group =>   4
Atom  16H    basis set group =>   4
Atom  17H    basis set group =>   4
Atom  18H    basis set group =>   4
Atom  19H    basis set group =>   4
Atom  20H    basis set group =>   4
Atom  21H    basis set group =>   4
Atom  22O    basis set group =>   3
Atom  23C    basis set group =>   2
Atom  24C    basis set group =>   2
Atom  25C    basis set group =>   2
Atom  26C    basis set group =>   2
Atom  27H    basis set group =>   4
Atom  28H    basis set group =>   4
Atom  29H    basis set group =>   4
Atom  30H    basis set group =>   4
Atom  31H    basis set group =>   4
Atom  32H    basis set group =>   4
Atom  33H    basis set group =>   4
Atom  34H    basis set group =>   4
Atom  35H    basis set group =>   4
Atom  36C    basis set group =>   2
Atom  37C    basis set group =>   2
Atom  38O    basis set group =>   3
Atom  39H    basis set group =>   4
Atom  40H    basis set group =>   4
Atom  41H    basis set group =>   4
Atom  42H    basis set group =>   4
Atom  43C    basis set group =>   2
Atom  44C    basis set group =>   2
Atom  45C    basis set group =>   2
Atom  46C    basis set group =>   2
Atom  47C    basis set group =>   2
Atom  48C    basis set group =>   2
Atom  49H    basis set group =>   4
Atom  50H    basis set group =>   4
Atom  51H    basis set group =>   4
Atom  52H    basis set group =>   4
Atom  53H    basis set group =>   4
Atom  54C    basis set group =>   2
Atom  55H    basis set group =>   4
Atom  56H    basis set group =>   4
Atom  57C    basis set group =>   2
Atom  58C    basis set group =>   2
Atom  59H    basis set group =>   4
Atom  60C    basis set group =>   2
Atom  61H    basis set group =>   4
Atom  62C    basis set group =>   2
Atom  63H    basis set group =>   4
Atom  64C    basis set group =>   2
Atom  65H    basis set group =>   4
Atom  66H    basis set group =>   4
---------------------------------
AUXILIARY/J BASIS SET INFORMATION
---------------------------------
There are 4 groups of distinct atoms

 Group   1 Type N   : 8s3p3d contracted to 6s3p3d pattern {311111/111/111}
 Group   2 Type C   : 8s3p3d contracted to 6s3p3d pattern {311111/111/111}
 Group   3 Type O   : 8s3p3d contracted to 6s3p3d pattern {311111/111/111}
 Group   4 Type H   : 5s2p1d contracted to 3s1p1d pattern {311/2/1}

Atom   0N    basis set group =>   1
Atom   1N    basis set group =>   1
Atom   2C    basis set group =>   2
Atom   3C    basis set group =>   2
Atom   4C    basis set group =>   2
Atom   5C    basis set group =>   2
Atom   6O    basis set group =>   3
Atom   7O    basis set group =>   3
Atom   8O    basis set group =>   3
Atom   9C    basis set group =>   2
Atom  10C    basis set group =>   2
Atom  11C    basis set group =>   2
Atom  12C    basis set group =>   2
Atom  13H    basis set group =>   4
Atom  14H    basis set group =>   4
Atom  15H    basis set group =>   4
Atom  16H    basis set group =>   4
Atom  17H    basis set group =>   4
Atom  18H    basis set group =>   4
Atom  19H    basis set group =>   4
Atom  20H    basis set group =>   4
Atom  21H    basis set group =>   4
Atom  22O    basis set group =>   3
Atom  23C    basis set group =>   2
Atom  24C    basis set group =>   2
Atom  25C    basis set group =>   2
Atom  26C    basis set group =>   2
Atom  27H    basis set group =>   4
Atom  28H    basis set group =>   4
Atom  29H    basis set group =>   4
Atom  30H    basis set group =>   4
Atom  31H    basis set group =>   4
Atom  32H    basis set group =>   4
Atom  33H    basis set group =>   4
Atom  34H    basis set group =>   4
Atom  35H    basis set group =>   4
Atom  36C    basis set group =>   2
Atom  37C    basis set group =>   2
Atom  38O    basis set group =>   3
Atom  39H    basis set group =>   4
Atom  40H    basis set group =>   4
Atom  41H    basis set group =>   4
Atom  42H    basis set group =>   4
Atom  43C    basis set group =>   2
Atom  44C    basis set group =>   2
Atom  45C    basis set group =>   2
Atom  46C    basis set group =>   2
Atom  47C    basis set group =>   2
Atom  48C    basis set group =>   2
Atom  49H    basis set group =>   4
Atom  50H    basis set group =>   4
Atom  51H    basis set group =>   4
Atom  52H    basis set group =>   4
Atom  53H    basis set group =>   4
Atom  54C    basis set group =>   2
Atom  55H    basis set group =>   4
Atom  56H    basis set group =>   4
Atom  57C    basis set group =>   2
Atom  58C    basis set group =>   2
Atom  59H    basis set group =>   4
Atom  60C    basis set group =>   2
Atom  61H    basis set group =>   4
Atom  62C    basis set group =>   2
Atom  63H    basis set group =>   4
Atom  64C    basis set group =>   2
Atom  65H    basis set group =>   4
Atom  66H    basis set group =>   4


           ************************************************************
           *        Program running with 44 parallel MPI-processes    *
           *              working on a common directory               *
           ************************************************************
------------------------------------------------------------------------------
                           ORCA GTO INTEGRAL CALCULATION
                           -- RI-GTO INTEGRALS CHOSEN --
------------------------------------------------------------------------------
------------------------------------------------------------------------------
                   ___                                                        
                  /   \      - P O W E R E D   B Y -                         
                 /     \                                                     
                 |  |  |   _    _      __       _____    __    __             
                 |  |  |  | |  | |    /  \     |  _  \  |  |  /  |          
                  \  \/   | |  | |   /    \    | | | |  |  | /  /          
                 / \  \   | |__| |  /  /\  \   | |_| |  |  |/  /          
                |  |  |   |  __  | /  /__\  \  |    /   |      \           
                |  |  |   | |  | | |   __   |  |    \   |  |\   \          
                \     /   | |  | | |  |  |  |  | |\  \  |  | \   \       
                 \___/    |_|  |_| |__|  |__|  |_| \__\ |__|  \__/        
                                                                              
                      - O R C A' S   B I G   F R I E N D -                    
                                      &                                       
                       - I N T E G R A L  F E E D E R -                       
                                                                              
 v1 FN, 2020, v2 2021                                                         
------------------------------------------------------------------------------


Reading SHARK input file ORCA.SHARKINP.tmp ... ok
----------------------
SHARK INTEGRAL PACKAGE
----------------------

Number of atoms                             ...     67
Number of basis functions                   ...    832
Number of shells                            ...    406
Maximum angular momentum                    ...      2
Integral batch strategy                     ... SHARK/LIBINT Hybrid
RI-J (if used) integral strategy            ... SPLIT-RIJ (Revised 2003 algorithm where possible)
Printlevel                                  ...      1
Contraction scheme used                     ... SEGMENTED contraction
Coulomb Range Separation                    ... NOT USED
Exchange Range Separation                   ... NOT USED
Finite Nucleus Model                        ... NOT USED
Auxiliary Coulomb fitting basis             ... AVAILABLE
   # of basis functions in Aux-J            ...   1364
   # of shells in Aux-J                     ...    566
   Maximum angular momentum in Aux-J        ...      2
Auxiliary J/K fitting basis                 ... NOT available
Auxiliary Correlation fitting basis         ... NOT available
Auxiliary 'external' fitting basis          ... NOT available
Integral threshold                          ...     1.000000e-10
Primitive cut-off                           ...     1.000000e-11
Primitive pair pre-selection threshold      ...     1.000000e-11

Calculating pre-screening integrals         ... done (  0.1 sec) Dimension = 406
Organizing shell pair data                  ... done (  0.5 sec)
Shell pair information
Total number of shell pairs                 ...     82621
Shell pairs after pre-screening             ...     52497
Total number of primitive shell pairs       ...    298434
Primitive shell pairs kept                  ...    113298
          la=0 lb=0:  16390 shell pairs
          la=1 lb=0:  20147 shell pairs
          la=1 lb=1:   6231 shell pairs
          la=2 lb=0:   5678 shell pairs
          la=2 lb=1:   3530 shell pairs
          la=2 lb=2:    521 shell pairs

Calculating one electron integrals          ... done (  0.1 sec)
Calculating RI/J V-Matrix + Cholesky decomp.... done (  0.1 sec)
Calculating Nuclear repulsion               ... done (  0.0 sec) ENN=   3804.881065967996 Eh

SHARK setup successfully completed in   1.2 seconds

Maximum memory used throughout the entire GTOINT-calculation: 73.4 MB


           ************************************************************
           *        Program running with 44 parallel MPI-processes    *
           *              working on a common directory               *
           ************************************************************
-------------------------------------------------------------------------------
                                 ORCA SCF
-------------------------------------------------------------------------------

------------
SCF SETTINGS
------------
Hamiltonian:
 Density Functional     Method          .... DFT(GTOs)
  Functional kind                       .... Exchange
  Functional name                       .... Re-regularized SCAN exchange by Furness et al
  Functional family                     .... MGGA
  Functional refs                              
    [ 0] J. W. Furness, A. D. Kaplan, J. Ning, J. P. Perdew, and J. Sun, J. Phys. Chem. Lett. 11, 8208 (2020)
    [ 1] J. W. Furness, A. D. Kaplan, J. Ning, J. P. Perdew, and J. Sun, J. Phys. Chem. Lett. 11, 9248 (2020)
  Functional external parameters         .... 8
 Parameter  0 :         c1 parameter
 Parameter  1 :         c2 parameter
 Parameter  2 :          d parameter
 Parameter  3 :         k1 parameter
 Parameter  4 :       taur parameter
 Parameter  5 :     alphar parameter
 Parameter  6 :        eta parameter
 Parameter  7 :        dp2 parameter
  Functional kind                       .... Correlation
  Functional name                       .... Re-regularized SCAN correlation by Furness et al
  Functional family                     .... MGGA
  Functional refs                              
    [ 0] J. W. Furness, A. D. Kaplan, J. Ning, J. P. Perdew, and J. Sun, J. Phys. Chem. Lett. 11, 8208 (2020)
    [ 1] J. W. Furness, A. D. Kaplan, J. Ning, J. P. Perdew, and J. Sun, J. Phys. Chem. Lett. 11, 9248 (2020)
  Functional external parameters         .... 0
 Gradients option       PostSCFGGA      .... off
   Density functional embedding theory  .... OFF
 RI-approximation to the Coulomb term is turned on
   Number of AuxJ basis functions       .... 1364


General Settings:
 Integral files         IntName         .... ORCA
 Hartree-Fock type      HFTyp           .... RHF
 Total Charge           Charge          ....    0
 Multiplicity           Mult            ....    1
 Number of Electrons    NEL             ....  244
 Basis Dimension        Dim             ....  832
 Nuclear Repulsion      ENuc            ....   3804.8810659680 Eh

Convergence Acceleration:
 DIIS                   CNVDIIS         .... on
   Start iteration      DIISMaxIt       ....    12
   Startup error        DIISStart       ....  0.200000
   # of expansion vecs  DIISMaxEq       ....     5
   Bias factor          DIISBfac        ....   1.050
   Max. coefficient     DIISMaxC        ....  10.000
 Trust-Rad. Augm. Hess. CNVTRAH         .... auto
   Auto Start mean grad. ratio tolernc. ....  1.125000
   Auto Start start iteration           ....    20
   Auto Start num. interpolation iter.  ....    10
   Max. Number of Micro iterations      ....    16
   Max. Number of Macro iterations      .... Maxiter - #DIIS iter
   Number of Davidson start vectors     ....     2
   Converg. threshold I  (grad. norm)   ....   5.000e-05
   Converg. threshold II (energy diff.) ....   1.000e-06
   Grad. Scal. Fac. for Micro threshold ....   0.100
   Minimum threshold for Micro iter.    ....   0.010
   NR start threshold (gradient norm)   ....   0.001
   Initial trust radius                 ....   0.400
   Minimum AH scaling param. (alpha)    ....   1.000
   Maximum AH scaling param. (alpha)    .... 1000.000
   Orbital update algorithm             .... Taylor
   White noise on init. David. guess    .... on
   Maximum white noise                  ....   0.010
   Quad. conv. algorithm                .... NR
   COSX micro iterations for RIJONX calc.... off
 SOSCF                  CNVSOSCF        .... on
   Start iteration      SOSCFMaxIt      ....   150
   Startup grad/error   SOSCFStart      ....  0.003300
 Level Shifting         CNVShift        .... on
   Level shift para.    LevelShift      ....    0.2500
   Turn off err/grad.   ShiftErr        ....    0.0010
 Zerner damping         CNVZerner       .... off
 Static damping         CNVDamp         .... on
   Fraction old density DampFac         ....    0.7000
   Max. Damping (<1)    DampMax         ....    0.9800
   Min. Damping (>=0)   DampMin         ....    0.0000
   Turn off err/grad.   DampErr         ....    0.1000
 Fernandez-Rico         CNVRico         .... off

SCF Procedure:
 Maximum # iterations   MaxIter         ....   125
 SCF integral mode      SCFMode         .... Direct
   Integral package                     .... SHARK and LIBINT hybrid scheme
 Reset frequency        DirectResetFreq ....    20
 Integral Threshold     Thresh          ....  1.000e-10 Eh
 Primitive CutOff       TCut            ....  1.000e-11 Eh

Convergence Tolerance:
 Convergence Check Mode ConvCheckMode   .... Total+1el-Energy
 Convergence forced     ConvForced      .... 0
 Energy Change          TolE            ....  1.000e-06 Eh
 1-El. energy change                    ....  1.000e-03 Eh
 Orbital Gradient       TolG            ....  5.000e-05
 Orbital Rotation angle TolX            ....  5.000e-05
 DIIS Error             TolErr          ....  1.000e-06


Diagonalization of the overlap matrix:
Smallest eigenvalue                        ... 1.430e-05
Time for diagonalization                   ...    0.175 sec
Threshold for overlap eigenvalues          ... 1.000e-08
Number of eigenvalues below threshold      ... 0
Time for construction of square roots      ...    0.127 sec
Total time needed                          ...    0.307 sec

Time for model grid setup =    0.326 sec

------------------------------
INITIAL GUESS: MODEL POTENTIAL
------------------------------
Loading Hartree-Fock densities                     ... done
Calculating cut-offs                               ... done
Initializing the effective Hamiltonian             ... done
Setting up the integral package (SHARK)            ... done
Starting the Coulomb interaction                   ... done (   0.2 sec)
Reading the grid                                   ... done
Mapping shells                                     ... done
Starting the XC term evaluation                    ... done (   0.1 sec)
  promolecular density results
     # of electrons  =    243.996206841
     EX              =   -196.906110235
     EC              =     -8.193426352
     EX+EC           =   -205.099536587
Transforming the Hamiltonian                       ... done (   0.1 sec)
Diagonalizing the Hamiltonian                      ... done (   0.2 sec)
Back transforming the eigenvectors                 ... done (   0.0 sec)
Now organizing SCF variables                       ... done
                      ------------------
                      INITIAL GUESS DONE (   1.1 sec)
                      ------------------
-------------------
DFT GRID GENERATION
-------------------

General Integration Accuracy     IntAcc      ... 4.388
Radial Grid Type                 RadialGrid  ... OptM3 with GC (2021)
Angular Grid (max. ang.)         AngularGrid ... 4 (Lebedev-302)
Angular grid pruning method      GridPruning ... 4 (adaptive)
Weight generation scheme         WeightScheme... Becke
Basis function cutoff            BFCut       ... 1.0000e-10
Integration weight cutoff        WCut        ... 1.0000e-14
Angular grids for H and He will be reduced by one unit
Partially contracted basis set               ... off
Rotationally invariant grid construction     ... off

Total number of grid points                  ...   304368
Total number of batches                      ...     4788
Average number of points per batch           ...       63
Average number of grid points per atom       ...     4543
Time for grid setup =    1.650 sec


--------------------
CPCM SOLVATION MODEL
--------------------
CPCM parameters:
  Epsilon                                         ...      36.6000
  Refrac                                          ...       1.3440
  Rsolv                                           ...       1.3000
  Surface type                                    ... GAUSSIAN VDW
  Epsilon function type                           ...         CPCM
Radii:
 Radius for N  used is    3.5149 Bohr (=   1.8600 Ang.)
 Radius for C  used is    3.8550 Bohr (=   2.0400 Ang.)
 Radius for O  used is    3.4469 Bohr (=   1.8240 Ang.)
 Radius for H  used is    2.4944 Bohr (=   1.3200 Ang.)
Calculating surface                               ...        done! (  0.0s)
GEPOL surface points                              ...         3348
GEPOL Volume                                      ...    3725.8848
GEPOL Surface-area                                ...    1773.9207
Calculating surface distance matrix               ...        done! (  0.2s)
Performing Cholesky decomposition & store         ...        done! (  0.8s)
Overall time for CPCM initialization              ...                 1.1s
--------------
SCF ITERATIONS
--------------
ITER       Energy         Delta-E        Max-DP      RMS-DP      [F,P]     Damp
               ***  Starting incremental Fock matrix formation  ***
  0  -1495.7188186797   0.000000000000 0.19589459  0.00117936  0.2744181 0.7000
  1  -1496.1444604560  -0.425641776263 0.08538034  0.00080834  0.0957507 0.7000
                               ***Turning on DIIS***
  2  -1496.2979499697  -0.153489513738 0.11752248  0.00144361  0.0329776 0.0000
  3  -1496.5456980675  -0.247748097828 0.11449843  0.00060273  0.0512369 0.0000
  4  -1496.6023717995  -0.056673732001 0.04840932  0.00025680  0.0194731 0.0000
  5  -1496.6071717081  -0.004799908614 0.01406195  0.00010372  0.0085697 0.0000
                      *** Initiating the SOSCF procedure ***
                           *** Shutting down DIIS ***
                      *** Re-Reading the Fockian *** 
                      *** Removing any level shift *** 
ITER      Energy       Delta-E        Grad      Rot      Max-DP    RMS-DP
  6  -1496.60751456  -0.0003428522  0.000313  0.000313  0.007569  0.000041
               *** Restarting incremental Fock matrix formation ***
  7  -1496.60753547  -0.0000209059  0.000177  0.000637  0.002885  0.000023
  8  -1496.60753123   0.0000042373  0.000456  0.000568  0.001668  0.000008
  9  -1496.60753864  -0.0000074153  0.000092  0.000211  0.001085  0.000007
 10  -1496.60753786   0.0000007877  0.000119  0.000116  0.001188  0.000004
 11  -1496.60753891  -0.0000010575  0.000015  0.000045  0.000274  0.000003
 12  -1496.60753893  -0.0000000129  0.000025  0.000032  0.000235  0.000001
                  ***Gradient check signals convergence***
              ***Rediagonalizing the Fockian in SOSCF/NRSCF***

               *****************************************************
               *                     SUCCESS                       *
               *           SCF CONVERGED AFTER  13 CYCLES          *
               *****************************************************


----------------
TOTAL SCF ENERGY
----------------

Total Energy       :        -1496.60753880 Eh          -40724.76154 eV

Components:
Nuclear Repulsion  :         3804.88106597 Eh          103536.07748 eV
Electronic Energy  :        -5301.48860477 Eh         -144260.83902 eV
One Electron Energy:        -9610.09586117 Eh         -261504.00299 eV
Two Electron Energy:         4308.60725640 Eh          117243.16397 eV
CPCM Dielectric    :           -0.02850915 Eh              -0.77577 eV

Virial components:
Potential Energy   :        -2986.33360539 Eh          -81262.26870 eV
Kinetic Energy     :         1489.72606658 Eh           40537.50716 eV
Virial Ratio       :            2.00461929


DFT components:
N(Alpha)           :      122.000391683206 electrons
N(Beta)            :      122.000391683206 electrons
N(Total)           :      244.000783366411 electrons
E(X)               :     -202.166143305331 Eh       
E(C)               :       -7.933236498578 Eh       
E(XC)              :     -210.099379803908 Eh       
DFET-embed. en.    :        0.000000000000 Eh       
CPCM Solvation Model Properties:
Surface-charge          :           -0.03839335
Charge-correction       :           -0.00032865 Eh              -0.00894 eV
Free-energy (cav+disp)  :  This term is not implemented in the current solvation scheme

---------------
SCF CONVERGENCE
---------------

  Last Energy change         ...    1.2472e-07  Tolerance :   1.0000e-06
  Last MAX-Density change    ...    3.7073e-04  Tolerance :   1.0000e-05
  Last RMS-Density change    ...    2.4361e-06  Tolerance :   1.0000e-06
  Last Orbital Gradient      ...    4.1107e-06  Tolerance :   5.0000e-05
  Last Orbital Rotation      ...    1.2278e-05  Tolerance :   5.0000e-05

             **** THE GBW FILE WAS UPDATED (ORCA.gbw) ****
             **** DENSITY ORCA.scfp WAS UPDATED ****
             **** ENERGY FILE WAS UPDATED (ORCA.en.tmp) ****
             **** THE GBW FILE WAS UPDATED (ORCA.gbw) ****
             **** DENSITY ORCA.scfp WAS UPDATED ****
----------------
ORBITAL ENERGIES
----------------

  NO   OCC          E(Eh)            E(eV) 
   0   2.0000     -19.001927      -517.0687 
   1   2.0000     -18.995181      -516.8852 
   2   2.0000     -18.960157      -515.9321 
   3   2.0000     -18.938093      -515.3317 
   4   2.0000     -18.932633      -515.1831 
   5   2.0000     -14.235179      -387.3589 
   6   2.0000     -14.232702      -387.2915 
   7   2.0000     -10.189414      -277.2681 
   8   2.0000     -10.184899      -277.1452 
   9   2.0000     -10.133298      -275.7411 
  10   2.0000     -10.111179      -275.1392 
  11   2.0000     -10.108083      -275.0549 
  12   2.0000     -10.108076      -275.0547 
  13   2.0000     -10.078097      -274.2390 
  14   2.0000     -10.060920      -273.7715 
  15   2.0000     -10.048595      -273.4362 
  16   2.0000     -10.042605      -273.2732 
  17   2.0000     -10.041688      -273.2482 
  18   2.0000     -10.041360      -273.2393 
  19   2.0000     -10.041098      -273.2322 
  20   2.0000     -10.040775      -273.2234 
  21   2.0000     -10.038358      -273.1576 
  22   2.0000     -10.037903      -273.1452 
  23   2.0000     -10.037221      -273.1267 
  24   2.0000     -10.036395      -273.1042 
  25   2.0000     -10.035065      -273.0680 
  26   2.0000     -10.027746      -272.8688 
  27   2.0000     -10.022302      -272.7207 
  28   2.0000     -10.021363      -272.6952 
  29   2.0000     -10.021072      -272.6872 
  30   2.0000     -10.021019      -272.6858 
  31   2.0000     -10.020292      -272.6660 
  32   2.0000     -10.019165      -272.6353 
  33   2.0000      -1.086486       -29.5648 
  34   2.0000      -1.071850       -29.1665 
  35   2.0000      -1.024823       -27.8868 
  36   2.0000      -1.004500       -27.3338 
  37   2.0000      -0.984813       -26.7981 
  38   2.0000      -0.972910       -26.4742 
  39   2.0000      -0.856147       -23.2970 
  40   2.0000      -0.832894       -22.6642 
  41   2.0000      -0.822831       -22.3904 
  42   2.0000      -0.784255       -21.3407 
  43   2.0000      -0.780003       -21.2250 
  44   2.0000      -0.761254       -20.7148 
  45   2.0000      -0.734728       -19.9930 
  46   2.0000      -0.721297       -19.6275 
  47   2.0000      -0.715083       -19.4584 
  48   2.0000      -0.701096       -19.0778 
  49   2.0000      -0.666486       -18.1360 
  50   2.0000      -0.661640       -18.0041 
  51   2.0000      -0.661459       -17.9992 
  52   2.0000      -0.659999       -17.9595 
  53   2.0000      -0.659442       -17.9443 
  54   2.0000      -0.649450       -17.6724 
  55   2.0000      -0.640431       -17.4270 
  56   2.0000      -0.581854       -15.8330 
  57   2.0000      -0.580307       -15.7910 
  58   2.0000      -0.576391       -15.6844 
  59   2.0000      -0.573260       -15.5992 
  60   2.0000      -0.562796       -15.3145 
  61   2.0000      -0.556996       -15.1566 
  62   2.0000      -0.527553       -14.3555 
  63   2.0000      -0.505136       -13.7454 
  64   2.0000      -0.500170       -13.6103 
  65   2.0000      -0.485346       -13.2069 
  66   2.0000      -0.482047       -13.1172 
  67   2.0000      -0.481542       -13.1034 
  68   2.0000      -0.473130       -12.8745 
  69   2.0000      -0.451047       -12.2736 
  70   2.0000      -0.447003       -12.1636 
  71   2.0000      -0.445296       -12.1171 
  72   2.0000      -0.440841       -11.9959 
  73   2.0000      -0.436097       -11.8668 
  74   2.0000      -0.431507       -11.7419 
  75   2.0000      -0.429577       -11.6894 
  76   2.0000      -0.422810       -11.5052 
  77   2.0000      -0.420687       -11.4475 
  78   2.0000      -0.417819       -11.3694 
  79   2.0000      -0.416503       -11.3336 
  80   2.0000      -0.409424       -11.1410 
  81   2.0000      -0.407786       -11.0964 
  82   2.0000      -0.406660       -11.0658 
  83   2.0000      -0.393404       -10.7051 
  84   2.0000      -0.392061       -10.6685 
  85   2.0000      -0.389694       -10.6041 
  86   2.0000      -0.385402       -10.4873 
  87   2.0000      -0.383706       -10.4412 
  88   2.0000      -0.379955       -10.3391 
  89   2.0000      -0.375788       -10.2257 
  90   2.0000      -0.372268       -10.1299 
  91   2.0000      -0.358138        -9.7454 
  92   2.0000      -0.357789        -9.7359 
  93   2.0000      -0.355437        -9.6719 
  94   2.0000      -0.352770        -9.5994 
  95   2.0000      -0.350900        -9.5485 
  96   2.0000      -0.349810        -9.5188 
  97   2.0000      -0.348557        -9.4847 
  98   2.0000      -0.336750        -9.1634 
  99   2.0000      -0.336210        -9.1487 
 100   2.0000      -0.335243        -9.1224 
 101   2.0000      -0.329980        -8.9792 
 102   2.0000      -0.328801        -8.9471 
 103   2.0000      -0.323810        -8.8113 
 104   2.0000      -0.323206        -8.7949 
 105   2.0000      -0.318616        -8.6700 
 106   2.0000      -0.316846        -8.6218 
 107   2.0000      -0.314127        -8.5478 
 108   2.0000      -0.310552        -8.4505 
 109   2.0000      -0.309472        -8.4212 
 110   2.0000      -0.307887        -8.3780 
 111   2.0000      -0.279448        -7.6042 
 112   2.0000      -0.273621        -7.4456 
 113   2.0000      -0.259874        -7.0715 
 114   2.0000      -0.259040        -7.0488 
 115   2.0000      -0.252406        -6.8683 
 116   2.0000      -0.249873        -6.7994 
 117   2.0000      -0.245021        -6.6674 
 118   2.0000      -0.239808        -6.5255 
 119   2.0000      -0.233112        -6.3433 
 120   2.0000      -0.230312        -6.2671 
 121   2.0000      -0.222137        -6.0447 
 122   0.0000      -0.071852        -1.9552 
 123   0.0000      -0.045127        -1.2280 
 124   0.0000      -0.038244        -1.0407 
 125   0.0000      -0.033711        -0.9173 
 126   0.0000      -0.024689        -0.6718 
 127   0.0000      -0.002487        -0.0677 
 128   0.0000       0.003778         0.1028 
 129   0.0000       0.050365         1.3705 
 130   0.0000       0.056777         1.5450 
 131   0.0000       0.068219         1.8563 
 132   0.0000       0.074964         2.0399 
 133   0.0000       0.078586         2.1384 
 134   0.0000       0.085791         2.3345 
 135   0.0000       0.087206         2.3730 
 136   0.0000       0.090819         2.4713 
 137   0.0000       0.093836         2.5534 
 138   0.0000       0.101153         2.7525 
 139   0.0000       0.103402         2.8137 
 140   0.0000       0.108477         2.9518 
 141   0.0000       0.111005         3.0206 
 142   0.0000       0.113412         3.0861 
 143   0.0000       0.117762         3.2045 
 144   0.0000       0.124472         3.3870 
 145   0.0000       0.126886         3.4527 
 146   0.0000       0.128620         3.4999 
 147   0.0000       0.133530         3.6335 
 148   0.0000       0.135143         3.6774 
 149   0.0000       0.136160         3.7051 
 150   0.0000       0.137484         3.7411 
 151   0.0000       0.137913         3.7528 
 152   0.0000       0.140394         3.8203 
 153   0.0000       0.141707         3.8560 
 154   0.0000       0.145517         3.9597 
 155   0.0000       0.146035         3.9738 
 156   0.0000       0.148754         4.0478 
 157   0.0000       0.149538         4.0691 
 158   0.0000       0.153783         4.1847 
 159   0.0000       0.155311         4.2262 
 160   0.0000       0.158560         4.3146 
 161   0.0000       0.162777         4.4294 
 162   0.0000       0.164265         4.4699 
 163   0.0000       0.167473         4.5572 
 164   0.0000       0.168521         4.5857 
 165   0.0000       0.170965         4.6522 
 166   0.0000       0.174496         4.7483 
 167   0.0000       0.178183         4.8486 
 168   0.0000       0.181227         4.9314 
 169   0.0000       0.183405         4.9907 
 170   0.0000       0.184406         5.0179 
 171   0.0000       0.187650         5.1062 
 172   0.0000       0.190147         5.1742 
 173   0.0000       0.194571         5.2945 
 174   0.0000       0.195540         5.3209 
 175   0.0000       0.200069         5.4442 
 176   0.0000       0.203009         5.5242 
 177   0.0000       0.205285         5.5861 
 178   0.0000       0.206656         5.6234 
 179   0.0000       0.211050         5.7430 
 180   0.0000       0.212300         5.7770 
 181   0.0000       0.213316         5.8046 
 182   0.0000       0.216855         5.9009 
 183   0.0000       0.219617         5.9761 
 184   0.0000       0.224487         6.1086 
 185   0.0000       0.227163         6.1814 
 186   0.0000       0.228641         6.2216 
 187   0.0000       0.229564         6.2468 
 188   0.0000       0.233856         6.3635 
 189   0.0000       0.236700         6.4409 
 190   0.0000       0.239588         6.5195 
 191   0.0000       0.241325         6.5668 
 192   0.0000       0.246939         6.7196 
 193   0.0000       0.247929         6.7465 
 194   0.0000       0.250965         6.8291 
 195   0.0000       0.254965         6.9379 
 196   0.0000       0.257360         7.0031 
 197   0.0000       0.262698         7.1484 
 198   0.0000       0.264408         7.1949 
 199   0.0000       0.266206         7.2438 
 200   0.0000       0.268034         7.2936 
 201   0.0000       0.270088         7.3495 
 202   0.0000       0.272485         7.4147 
 203   0.0000       0.276413         7.5216 
 204   0.0000       0.278584         7.5807 
 205   0.0000       0.282973         7.7001 
 206   0.0000       0.287135         7.8133 
 207   0.0000       0.292009         7.9460 
 208   0.0000       0.293464         7.9856 
 209   0.0000       0.296547         8.0695 
 210   0.0000       0.300087         8.1658 
 211   0.0000       0.303755         8.2656 
 212   0.0000       0.306904         8.3513 
 213   0.0000       0.311674         8.4811 
 214   0.0000       0.313262         8.5243 
 215   0.0000       0.315085         8.5739 
 216   0.0000       0.320518         8.7217 
 217   0.0000       0.322904         8.7867 
 218   0.0000       0.325582         8.8595 
 219   0.0000       0.328910         8.9501 
 220   0.0000       0.329633         8.9698 
 221   0.0000       0.331517         9.0210 
 222   0.0000       0.337944         9.1959 
 223   0.0000       0.339126         9.2281 
 224   0.0000       0.341338         9.2883 
 225   0.0000       0.344990         9.3877 
 226   0.0000       0.348710         9.4889 
 227   0.0000       0.349935         9.5222 
 228   0.0000       0.362322         9.8593 
 229   0.0000       0.363467         9.8904 
 230   0.0000       0.364142         9.9088 
 231   0.0000       0.367255         9.9935 
 232   0.0000       0.371134        10.0991 
 233   0.0000       0.374169        10.1816 
 234   0.0000       0.378898        10.3104 
 235   0.0000       0.382840        10.4176 
 236   0.0000       0.385329        10.4853 
 237   0.0000       0.392027        10.6676 
 238   0.0000       0.396744        10.7960 
 239   0.0000       0.401087        10.9141 
 240   0.0000       0.402724        10.9587 
 241   0.0000       0.408320        11.1109 
 242   0.0000       0.412269        11.2184 
 243   0.0000       0.421119        11.4592 
 244   0.0000       0.430451        11.7132 
 245   0.0000       0.433462        11.7951 
 246   0.0000       0.436722        11.8838 
 247   0.0000       0.445820        12.1314 
 248   0.0000       0.446836        12.1590 
 249   0.0000       0.451036        12.2733 
 250   0.0000       0.452355        12.3092 
 251   0.0000       0.457592        12.4517 
 252   0.0000       0.459647        12.5076 
 253   0.0000       0.466762        12.7013 
 254   0.0000       0.472795        12.8654 
 255   0.0000       0.474322        12.9070 
 256   0.0000       0.478986        13.0339 
 257   0.0000       0.481451        13.1010 
 258   0.0000       0.484225        13.1764 
 259   0.0000       0.488729        13.2990 
 260   0.0000       0.496418        13.5082 
 261   0.0000       0.497442        13.5361 
 262   0.0000       0.501058        13.6345 
 263   0.0000       0.504144        13.7184 
 264   0.0000       0.509227        13.8568 
 265   0.0000       0.515654        14.0317 
 266   0.0000       0.517654        14.0861 
 267   0.0000       0.518202        14.1010 
 268   0.0000       0.521024        14.1778 
 269   0.0000       0.528685        14.3863 
 270   0.0000       0.529971        14.4212 
 271   0.0000       0.532829        14.4990 
 272   0.0000       0.536871        14.6090 
 273   0.0000       0.543069        14.7777 
 274   0.0000       0.550483        14.9794 
 275   0.0000       0.556606        15.1460 
 276   0.0000       0.557799        15.1785 
 277   0.0000       0.560934        15.2638 
 278   0.0000       0.566747        15.4220 
 279   0.0000       0.571078        15.5398 
 280   0.0000       0.577748        15.7213 
 281   0.0000       0.582626        15.8541 
 282   0.0000       0.585680        15.9372 
 283   0.0000       0.587499        15.9867 
 284   0.0000       0.590903        16.0793 
 285   0.0000       0.592743        16.1294 
 286   0.0000       0.596283        16.2257 
 287   0.0000       0.604457        16.4481 
 288   0.0000       0.605214        16.4687 
 289   0.0000       0.613542        16.6953 
 290   0.0000       0.616541        16.7769 
 291   0.0000       0.620461        16.8836 
 292   0.0000       0.621291        16.9062 
 293   0.0000       0.626983        17.0611 
 294   0.0000       0.633167        17.2294 
 295   0.0000       0.638330        17.3698 
 296   0.0000       0.644471        17.5369 
 297   0.0000       0.651362        17.7245 
 298   0.0000       0.656384        17.8611 
 299   0.0000       0.658842        17.9280 
 300   0.0000       0.659334        17.9414 
 301   0.0000       0.667934        18.1754 
 302   0.0000       0.670475        18.2446 
 303   0.0000       0.671795        18.2805 
 304   0.0000       0.679558        18.4917 
 305   0.0000       0.682879        18.5821 
 306   0.0000       0.691349        18.8126 
 307   0.0000       0.695709        18.9312 
 308   0.0000       0.696451        18.9514 
 309   0.0000       0.706212        19.2170 
 310   0.0000       0.710998        19.3472 
 311   0.0000       0.714413        19.4402 
 312   0.0000       0.717171        19.5152 
 313   0.0000       0.724978        19.7276 
 314   0.0000       0.730085        19.8666 
 315   0.0000       0.734970        19.9996 
 316   0.0000       0.739224        20.1153 
 317   0.0000       0.744924        20.2704 
 318   0.0000       0.751581        20.4515 
 319   0.0000       0.761533        20.7224 
 320   0.0000       0.764175        20.7943 
 321   0.0000       0.771678        20.9984 
 322   0.0000       0.777264        21.1504 
 323   0.0000       0.779095        21.2003 
 324   0.0000       0.791232        21.5305 
 325   0.0000       0.794141        21.6097 
 326   0.0000       0.797995        21.7145 
 327   0.0000       0.803284        21.8585 
 328   0.0000       0.819526        22.3004 
 329   0.0000       0.823845        22.4180 
 330   0.0000       0.829236        22.5647 
 331   0.0000       0.844392        22.9771 
 332   0.0000       0.857146        23.3241 
 333   0.0000       0.863767        23.5043 
 334   0.0000       0.879146        23.9228 
 335   0.0000       0.891856        24.2686 
 336   0.0000       0.904281        24.6067 
 337   0.0000       0.918122        24.9834 
 338   0.0000       0.923385        25.1266 
 339   0.0000       0.933132        25.3918 
 340   0.0000       0.943677        25.6787 
 341   0.0000       0.959983        26.1225 
 342   0.0000       0.966338        26.2954 
 343   0.0000       0.973186        26.4817 
 344   0.0000       0.987052        26.8591 
 345   0.0000       0.996662        27.1205 
 346   0.0000       1.012656        27.5558 
 347   0.0000       1.019809        27.7504 
 348   0.0000       1.029980        28.0272 
 349   0.0000       1.031428        28.0666 
 350   0.0000       1.033396        28.1201 
 351   0.0000       1.043061        28.3831 
 352   0.0000       1.055292        28.7160 
 353   0.0000       1.062713        28.9179 
 354   0.0000       1.066166        29.0118 
 355   0.0000       1.073950        29.2237 
 356   0.0000       1.076107        29.2824 
 357   0.0000       1.085353        29.5340 
 358   0.0000       1.086589        29.5676 
 359   0.0000       1.089434        29.6450 
 360   0.0000       1.100157        29.9368 
 361   0.0000       1.104232        30.0477 
 362   0.0000       1.107469        30.1358 
 363   0.0000       1.111973        30.2583 
 364   0.0000       1.114762        30.3342 
 365   0.0000       1.121321        30.5127 
 366   0.0000       1.127209        30.6729 
 367   0.0000       1.129684        30.7403 
 368   0.0000       1.130465        30.7615 
 369   0.0000       1.134074        30.8597 
 370   0.0000       1.138226        30.9727 
 371   0.0000       1.144091        31.1323 
 372   0.0000       1.149397        31.2767 
 373   0.0000       1.150083        31.2954 
 374   0.0000       1.155972        31.4556 
 375   0.0000       1.160319        31.5739 
 376   0.0000       1.170205        31.8429 
 377   0.0000       1.174470        31.9589 
 378   0.0000       1.178200        32.0605 
 379   0.0000       1.192561        32.4512 
 380   0.0000       1.195291        32.5255 
 381   0.0000       1.200002        32.6537 
 382   0.0000       1.208265        32.8786 
 383   0.0000       1.210564        32.9411 
 384   0.0000       1.217635        33.1335 
 385   0.0000       1.223897        33.3039 
 386   0.0000       1.228449        33.4278 
 387   0.0000       1.241625        33.7863 
 388   0.0000       1.249518        34.0011 
 389   0.0000       1.254117        34.1263 
 390   0.0000       1.260211        34.2921 
 391   0.0000       1.265623        34.4393 
 392   0.0000       1.271339        34.5949 
 393   0.0000       1.280723        34.8503 
 394   0.0000       1.284935        34.9649 
 395   0.0000       1.288878        35.0722 
 396   0.0000       1.306367        35.5481 
 397   0.0000       1.309428        35.6313 
 398   0.0000       1.313221        35.7346 
 399   0.0000       1.316949        35.8360 
 400   0.0000       1.321823        35.9686 
 401   0.0000       1.328832        36.1594 
 402   0.0000       1.331218        36.2243 
 403   0.0000       1.333922        36.2979 
 404   0.0000       1.337260        36.3887 
 405   0.0000       1.339193        36.4413 
 406   0.0000       1.341712        36.5098 
 407   0.0000       1.344597        36.5883 
 408   0.0000       1.347772        36.6747 
 409   0.0000       1.352440        36.8018 
 410   0.0000       1.358071        36.9550 
 411   0.0000       1.360818        37.0297 
 412   0.0000       1.364896        37.1407 
 413   0.0000       1.366950        37.1966 
 414   0.0000       1.368415        37.2365 
 415   0.0000       1.374421        37.3999 
 416   0.0000       1.376503        37.4565 
 417   0.0000       1.382027        37.6069 
 418   0.0000       1.383853        37.6566 
 419   0.0000       1.386412        37.7262 
 420   0.0000       1.392202        37.8838 
 421   0.0000       1.395163        37.9643 
 422   0.0000       1.404291        38.2127 
 423   0.0000       1.405145        38.2360 
 424   0.0000       1.406344        38.2686 
 425   0.0000       1.410143        38.3720 
 426   0.0000       1.412103        38.4253 
 427   0.0000       1.416985        38.5581 
 428   0.0000       1.420550        38.6551 
 429   0.0000       1.422890        38.7188 
 430   0.0000       1.431370        38.9496 
 431   0.0000       1.436330        39.0845 
 432   0.0000       1.440802        39.2062 
 433   0.0000       1.445197        39.3258 
 434   0.0000       1.446011        39.3480 
 435   0.0000       1.453808        39.5601 
 436   0.0000       1.460868        39.7522 
 437   0.0000       1.466425        39.9034 
 438   0.0000       1.468848        39.9694 
 439   0.0000       1.472090        40.0576 
 440   0.0000       1.478803        40.2403 
 441   0.0000       1.479088        40.2480 
 442   0.0000       1.484767        40.4026 
 443   0.0000       1.485036        40.4099 
 444   0.0000       1.490820        40.5673 
 445   0.0000       1.492416        40.6107 
 446   0.0000       1.497540        40.7501 
 447   0.0000       1.502497        40.8850 
 448   0.0000       1.506489        40.9937 
 449   0.0000       1.507905        41.0322 
 450   0.0000       1.513543        41.1856 
 451   0.0000       1.521483        41.4017 
 452   0.0000       1.525356        41.5070 
 453   0.0000       1.531871        41.6843 
 454   0.0000       1.533395        41.7258 
 455   0.0000       1.537077        41.8260 
 456   0.0000       1.544815        42.0366 
 457   0.0000       1.545771        42.0626 
 458   0.0000       1.552556        42.2472 
 459   0.0000       1.559797        42.4442 
 460   0.0000       1.567937        42.6657 
 461   0.0000       1.572759        42.7970 
 462   0.0000       1.578535        42.9541 
 463   0.0000       1.585210        43.1358 
 464   0.0000       1.589590        43.2549 
 465   0.0000       1.592580        43.3363 
 466   0.0000       1.598150        43.4879 
 467   0.0000       1.604189        43.6522 
 468   0.0000       1.606755        43.7220 
 469   0.0000       1.611094        43.8401 
 470   0.0000       1.623166        44.1686 
 471   0.0000       1.626374        44.2559 
 472   0.0000       1.628507        44.3139 
 473   0.0000       1.631360        44.3916 
 474   0.0000       1.638252        44.5791 
 475   0.0000       1.646942        44.8156 
 476   0.0000       1.655700        45.0539 
 477   0.0000       1.667263        45.3685 
 478   0.0000       1.674487        45.5651 
 479   0.0000       1.678575        45.6763 
 480   0.0000       1.684234        45.8303 
 481   0.0000       1.691017        46.0149 
 482   0.0000       1.702195        46.3191 
 483   0.0000       1.709603        46.5207 
 484   0.0000       1.722336        46.8671 
 485   0.0000       1.729236        47.0549 
 486   0.0000       1.741920        47.4000 
 487   0.0000       1.750096        47.6225 
 488   0.0000       1.753239        47.7081 
 489   0.0000       1.758557        47.8528 
 490   0.0000       1.773392        48.2564 
 491   0.0000       1.778196        48.3872 
 492   0.0000       1.783332        48.5269 
 493   0.0000       1.795407        48.8555 
 494   0.0000       1.799396        48.9640 
 495   0.0000       1.804633        49.1065 
 496   0.0000       1.811433        49.2916 
 497   0.0000       1.823899        49.6308 
 498   0.0000       1.825126        49.6642 
 499   0.0000       1.835415        49.9442 
 500   0.0000       1.837308        49.9957 
 501   0.0000       1.847728        50.2792 
 502   0.0000       1.851624        50.3853 
 503   0.0000       1.856032        50.5052 
 504   0.0000       1.867602        50.8200 
 505   0.0000       1.871426        50.9241 
 506   0.0000       1.882194        51.2171 
 507   0.0000       1.885681        51.3120 
 508   0.0000       1.892606        51.5004 
 509   0.0000       1.898782        51.6685 
 510   0.0000       1.902753        51.7765 
 511   0.0000       1.914404        52.0936 
 512   0.0000       1.917321        52.1730 
 513   0.0000       1.922368        52.3103 
 514   0.0000       1.930705        52.5371 
 515   0.0000       1.932717        52.5919 
 516   0.0000       1.940332        52.7991 
 517   0.0000       1.949499        53.0486 
 518   0.0000       1.954162        53.1755 
 519   0.0000       1.959069        53.3090 
 520   0.0000       1.962781        53.4100 
 521   0.0000       1.968245        53.5587 
 522   0.0000       1.969907        53.6039 
 523   0.0000       1.973442        53.7001 
 524   0.0000       1.976848        53.7928 
 525   0.0000       1.979425        53.8629 
 526   0.0000       1.984567        54.0028 
 527   0.0000       1.994034        54.2604 
 528   0.0000       2.001526        54.4643 
 529   0.0000       2.012020        54.7498 
 530   0.0000       2.020717        54.9865 
 531   0.0000       2.029025        55.2126 
 532   0.0000       2.037868        55.4532 
 533   0.0000       2.041200        55.5439 
 534   0.0000       2.051006        55.8107 
 535   0.0000       2.055898        55.9438 
 536   0.0000       2.057413        55.9851 
 537   0.0000       2.065433        56.2033 
 538   0.0000       2.074990        56.4634 
 539   0.0000       2.078602        56.5616 
 540   0.0000       2.081983        56.6536 
 541   0.0000       2.084303        56.7168 
 542   0.0000       2.087634        56.8074 
 543   0.0000       2.090517        56.8859 
 544   0.0000       2.093328        56.9624 
 545   0.0000       2.097824        57.0847 
 546   0.0000       2.103318        57.2342 
 547   0.0000       2.109126        57.3922 
 548   0.0000       2.117894        57.6308 
 549   0.0000       2.120671        57.7064 
 550   0.0000       2.124794        57.8186 
 551   0.0000       2.133142        58.0458 
 552   0.0000       2.138546        58.1928 
 553   0.0000       2.143814        58.3361 
 554   0.0000       2.154988        58.6402 
 555   0.0000       2.166907        58.9645 
 556   0.0000       2.169532        59.0360 
 557   0.0000       2.181845        59.3710 
 558   0.0000       2.190820        59.6152 
 559   0.0000       2.198305        59.8189 
 560   0.0000       2.206925        60.0535 
 561   0.0000       2.211081        60.1666 
 562   0.0000       2.222792        60.4852 
 563   0.0000       2.242735        61.0279 
 564   0.0000       2.244263        61.0695 
 565   0.0000       2.249280        61.2060 
 566   0.0000       2.256839        61.4117 
 567   0.0000       2.260292        61.5057 
[...]
127:   1331.53   0.000703    3.55  0.000165  (-0.010624 -0.001982 -0.006932)
128:   1344.25   0.012120   61.25  0.002814  ( 0.038791  0.033569 -0.013493)
129:   1357.03   0.005393   27.26  0.001240  (-0.015709  0.031120 -0.005001)
130:   1359.57   0.026873  135.80  0.006168  (-0.034187  0.068644 -0.016954)
131:   1360.79   0.001777    8.98  0.000407  (-0.004194  0.018576 -0.006690)
132:   1375.98   0.007894   39.89  0.001790  ( 0.027112 -0.024240 -0.021625)
133:   1377.20   0.007894   39.89  0.001789  (-0.003275  0.019785 -0.037237)
134:   1379.97   0.009170   46.34  0.002074  (-0.022126  0.009147 -0.038735)
135:   1380.98   0.006557   33.13  0.001482  (-0.014537  0.027835  0.022260)
136:   1381.87   0.004125   20.85  0.000932  (-0.009808  0.028876 -0.001227)
137:   1398.48   0.006221   31.44  0.001388  (-0.003429 -0.033358  0.016234)
138:   1398.65   0.001140    5.76  0.000254  (-0.012113  0.010149 -0.002166)
139:   1399.82   0.005241   26.48  0.001168  ( 0.033964 -0.002813 -0.002624)
140:   1406.38   0.025355  128.13  0.005626  (-0.022177 -0.071634  0.001678)
141:   1445.51   0.000040    0.20  0.000009  ( 0.000424 -0.001045  0.002700)
142:   1446.16   0.000061    0.31  0.000013  (-0.002164  0.002371  0.001692)
143:   1453.16   0.015491   78.28  0.003327  (-0.042697 -0.023510  0.030835)
144:   1460.12   0.000018    0.09  0.000004  (-0.000565  0.001740  0.000736)
145:   1460.96   0.000182    0.92  0.000039  ( 0.005704  0.000433 -0.002489)
146:   1461.21   0.000150    0.76  0.000032  (-0.000951  0.002367 -0.005049)
147:   1461.76   0.000133    0.67  0.000028  (-0.002957  0.004432 -0.000109)
148:   1466.61   0.001152    5.82  0.000245  (-0.009387 -0.006404  0.010774)
149:   1467.68   0.005401   27.30  0.001148  ( 0.001799  0.031527  0.012297)
150:   1468.02   0.003888   19.65  0.000827  (-0.017580  0.005226 -0.022141)
151:   1473.53   0.002304   11.64  0.000488  ( 0.005003 -0.017804  0.012082)
152:   1473.71   0.001521    7.69  0.000322  ( 0.001996 -0.007717  0.016081)
153:   1474.99   0.000826    4.17  0.000175  (-0.009424  0.008211  0.004298)
154:   1478.92   0.001931    9.76  0.000407  (-0.001972 -0.002928 -0.019874)
155:   1486.58   0.001635    8.26  0.000343  ( 0.011692  0.014370  0.000199)
156:   1491.97   0.004825   24.38  0.001009  (-0.028660  0.011627  0.007249)
157:   1492.78   0.006153   31.10  0.001286  (-0.011628 -0.028342  0.018651)
158:   1520.58   0.004539   22.94  0.000931  (-0.024561 -0.000806  0.018099)
159:   1521.51   0.004530   22.89  0.000929  (-0.021726  0.020770 -0.005075)
160:   1614.91   0.000848    4.28  0.000164  (-0.011397  0.001203 -0.005696)
161:   1617.88   0.000308    1.56  0.000059  ( 0.007389  0.002207  0.000190)
162:   1631.55   0.000691    3.49  0.000132  ( 0.010497  0.004119 -0.002244)
163:   1637.04   0.001872    9.46  0.000357  ( 0.014953 -0.011122  0.003097)
164:   1715.43   0.142412  719.69  0.025907  ( 0.052316  0.047404  0.144647)
165:   1732.93   0.140115  708.08  0.025232  (-0.062626  0.145831 -0.006556)
166:   1755.47   0.087028  439.81  0.015471  ( 0.099105  0.069799  0.027877)
167:   2929.43   0.017822   90.07  0.001899  (-0.011133  0.034452 -0.024242)
168:   3018.60   0.003809   19.25  0.000394  (-0.004948 -0.003867 -0.018825)
169:   3020.48   0.003202   16.18  0.000331  (-0.001064 -0.017234 -0.005714)
170:   3020.94   0.006139   31.02  0.000634  (-0.021120  0.012230  0.006205)
171:   3023.04   0.005806   29.34  0.000599  ( 0.003512 -0.009374  0.022340)
172:   3026.81   0.002236   11.30  0.000231  ( 0.002616  0.014612  0.003193)
173:   3027.88   0.001903    9.62  0.000196  (-0.013175 -0.003834  0.002808)
174:   3038.16   0.002422   12.24  0.000249  (-0.001809 -0.009992  0.012069)
175:   3042.24   0.003940   19.91  0.000404  ( 0.008539  0.000877 -0.018178)
176:   3098.79   0.000995    5.03  0.000100  (-0.009403 -0.003375  0.000623)
177:   3105.71   0.002293   11.59  0.000230  ( 0.004608 -0.014331  0.001956)
178:   3108.28   0.001265    6.39  0.000127  (-0.003359 -0.003476  0.010179)
179:   3108.40   0.003167   16.01  0.000318  ( 0.007382  0.011431 -0.011525)
180:   3109.89   0.003007   15.20  0.000302  ( 0.016131 -0.005210 -0.003791)
181:   3111.95   0.006758   34.15  0.000678  (-0.016785  0.015716  0.012206)
182:   3114.14   0.006628   33.49  0.000664  (-0.005825  0.014024 -0.020822)
183:   3122.45   0.006330   31.99  0.000633  (-0.003629 -0.018345  0.016822)
184:   3123.23   0.006658   33.65  0.000665  ( 0.021697 -0.009283 -0.010407)
185:   3132.18   0.001630    8.24  0.000162  ( 0.012386 -0.000464 -0.002952)
186:   3133.92   0.001986   10.03  0.000198  (-0.011164 -0.004632 -0.007186)
187:   3135.90   0.001782    9.00  0.000177  (-0.004801  0.009369  0.008154)
188:   3137.87   0.000740    3.74  0.000074  ( 0.004238  0.004942  0.005589)
189:   3141.07   0.003689   18.64  0.000366  ( 0.008373  0.015774  0.006894)
190:   3142.62   0.002920   14.76  0.000290  (-0.011123 -0.005360 -0.011728)
191:   3154.94   0.001653    8.35  0.000163  ( 0.011269 -0.001010 -0.005957)
192:   3164.45   0.000068    0.35  0.000007  ( 0.000902 -0.002081  0.001266)
193:   3165.94   0.000100    0.50  0.000010  (-0.000290  0.003103 -0.000349)
194:   3173.43   0.003579   18.09  0.000352  ( 0.012153  0.004211 -0.013658)
195:   3174.23   0.002867   14.49  0.000282  ( 0.002880 -0.014764  0.007456)
196:   3183.96   0.003764   19.02  0.000369  ( 0.009151 -0.012564  0.011285)
197:   3184.62   0.002427   12.26  0.000238  (-0.013496 -0.001098  0.007378)
198:   3190.45   0.001283    6.48  0.000125  ( 0.009319 -0.001363 -0.006062)
199:   3192.05   0.002106   10.64  0.000206  (-0.008085  0.004987  0.010755)
200:   3204.10   0.001138    5.75  0.000111  (-0.004880  0.008839 -0.002989)

* The epsilon (eps) is given for a Dirac delta lineshape.
** The dipole moment derivative (T) already includes vibrational overlap.

The first frequency considered to be a vibration is 6
The total number of vibrations considered is 195


--------------------------
THERMOCHEMISTRY AT 298.15K
--------------------------

Temperature         ... 298.15 K
Pressure            ... 1.00 atm
Total Mass          ... 454.57 AMU

Throughout the following assumptions are being made:
  (1) The electronic state is orbitally nondegenerate
  (2) There are no thermally accessible electronically excited states
  (3) Hindered rotations indicated by low frequency modes are not
      treated as such but are treated as vibrations and this may
      cause some error
  (4) All equations used are the standard statistical mechanics
      equations for an ideal gas
  (5) All vibrations are strictly harmonic

freq.      12.67  E(vib)   ...       0.57 
freq.      18.15  E(vib)   ...       0.57 
freq.      24.88  E(vib)   ...       0.56 
freq.      28.81  E(vib)   ...       0.55 
freq.      34.45  E(vib)   ...       0.54 
freq.      40.50  E(vib)   ...       0.54 
freq.      45.06  E(vib)   ...       0.53 
freq.      49.93  E(vib)   ...       0.52 
freq.      63.35  E(vib)   ...       0.51 
freq.      77.33  E(vib)   ...       0.49 
freq.      88.37  E(vib)   ...       0.48 
freq.      91.59  E(vib)   ...       0.47 
freq.     107.54  E(vib)   ...       0.45 
freq.     114.28  E(vib)   ...       0.44 
freq.     123.57  E(vib)   ...       0.43 
freq.     144.69  E(vib)   ...       0.41 
freq.     151.15  E(vib)   ...       0.40 
freq.     164.24  E(vib)   ...       0.39 
freq.     186.43  E(vib)   ...       0.37 
freq.     194.40  E(vib)   ...       0.36 
freq.     200.35  E(vib)   ...       0.35 
freq.     206.57  E(vib)   ...       0.35 
freq.     215.07  E(vib)   ...       0.34 
freq.     220.81  E(vib)   ...       0.33 
freq.     238.42  E(vib)   ...       0.32 
freq.     239.61  E(vib)   ...       0.31 
freq.     241.86  E(vib)   ...       0.31 
freq.     256.55  E(vib)   ...       0.30 
freq.     278.62  E(vib)   ...       0.28 
freq.     278.95  E(vib)   ...       0.28 
freq.     296.20  E(vib)   ...       0.27 
freq.     318.53  E(vib)   ...       0.25 
freq.     325.28  E(vib)   ...       0.24 
freq.     327.14  E(vib)   ...       0.24 
freq.     336.81  E(vib)   ...       0.24 
freq.     346.59  E(vib)   ...       0.23 
freq.     350.37  E(vib)   ...       0.23 
freq.     355.32  E(vib)   ...       0.22 
freq.     356.18  E(vib)   ...       0.22 
freq.     361.26  E(vib)   ...       0.22 
freq.     406.67  E(vib)   ...       0.19 
freq.     411.60  E(vib)   ...       0.19 
freq.     416.78  E(vib)   ...       0.18 
freq.     423.51  E(vib)   ...       0.18 
freq.     432.38  E(vib)   ...       0.18 
freq.     447.70  E(vib)   ...       0.17 
freq.     457.88  E(vib)   ...       0.16 
freq.     459.61  E(vib)   ...       0.16 
freq.     460.35  E(vib)   ...       0.16 
freq.     467.08  E(vib)   ...       0.16 
freq.     485.67  E(vib)   ...       0.15 
freq.     509.83  E(vib)   ...       0.14 
freq.     528.57  E(vib)   ...       0.13 
freq.     584.45  E(vib)   ...       0.11 
freq.     607.13  E(vib)   ...       0.10 
freq.     629.96  E(vib)   ...       0.09 
freq.     632.72  E(vib)   ...       0.09 
freq.     635.93  E(vib)   ...       0.09 
freq.     692.55  E(vib)   ...       0.07 
freq.     704.28  E(vib)   ...       0.07 
freq.     707.48  E(vib)   ...       0.07 
freq.     710.78  E(vib)   ...       0.07 
freq.     740.17  E(vib)   ...       0.06 
freq.     745.72  E(vib)   ...       0.06 
freq.     757.84  E(vib)   ...       0.06 
freq.     764.50  E(vib)   ...       0.06 
freq.     767.28  E(vib)   ...       0.06 
freq.     773.89  E(vib)   ...       0.05 
freq.     793.53  E(vib)   ...       0.05 
freq.     820.29  E(vib)   ...       0.05 
freq.     845.59  E(vib)   ...       0.04 
freq.     848.75  E(vib)   ...       0.04 
freq.     850.33  E(vib)   ...       0.04 
freq.     854.60  E(vib)   ...       0.04 
freq.     856.12  E(vib)   ...       0.04 
freq.     894.04  E(vib)   ...       0.03 
freq.     906.04  E(vib)   ...       0.03 
freq.     923.91  E(vib)   ...       0.03 
freq.     926.16  E(vib)   ...       0.03 
freq.     926.42  E(vib)   ...       0.03 
freq.     926.74  E(vib)   ...       0.03 
freq.     936.57  E(vib)   ...       0.03 
freq.     952.04  E(vib)   ...       0.03 
freq.     960.31  E(vib)   ...       0.03 
freq.     960.75  E(vib)   ...       0.03 
freq.     976.56  E(vib)   ...       0.03 
freq.     987.62  E(vib)   ...       0.02 
freq.     993.91  E(vib)   ...       0.02 
freq.     999.12  E(vib)   ...       0.02 
freq.    1003.69  E(vib)   ...       0.02 
freq.    1010.77  E(vib)   ...       0.02 
freq.    1021.36  E(vib)   ...       0.02 
freq.    1021.44  E(vib)   ...       0.02 
freq.    1042.70  E(vib)   ...       0.02 
freq.    1043.04  E(vib)   ...       0.02 
freq.    1047.19  E(vib)   ...       0.02 
freq.    1049.35  E(vib)   ...       0.02 
freq.    1050.20  E(vib)   ...       0.02 
freq.    1052.71  E(vib)   ...       0.02 
freq.    1067.11  E(vib)   ...       0.02 
freq.    1101.19  E(vib)   ...       0.02 
freq.    1104.12  E(vib)   ...       0.02 
freq.    1111.45  E(vib)   ...       0.01 
freq.    1135.04  E(vib)   ...       0.01 
freq.    1158.18  E(vib)   ...       0.01 
freq.    1160.93  E(vib)   ...       0.01 
freq.    1171.87  E(vib)   ...       0.01 
freq.    1174.37  E(vib)   ...       0.01 
freq.    1178.14  E(vib)   ...       0.01 
freq.    1198.90  E(vib)   ...       0.01 
freq.    1202.91  E(vib)   ...       0.01 
freq.    1209.31  E(vib)   ...       0.01 
freq.    1221.55  E(vib)   ...       0.01 
freq.    1226.23  E(vib)   ...       0.01 
freq.    1249.10  E(vib)   ...       0.01 
freq.    1259.33  E(vib)   ...       0.01 
freq.    1262.06  E(vib)   ...       0.01 
freq.    1262.81  E(vib)   ...       0.01 
freq.    1271.44  E(vib)   ...       0.01 
freq.    1284.55  E(vib)   ...       0.01 
freq.    1323.88  E(vib)   ...       0.01 
freq.    1331.53  E(vib)   ...       0.01 
freq.    1344.25  E(vib)   ...       0.01 
freq.    1357.03  E(vib)   ...       0.01 
freq.    1359.57  E(vib)   ...       0.01 
freq.    1360.79  E(vib)   ...       0.01 
freq.    1375.98  E(vib)   ...       0.01 
freq.    1377.20  E(vib)   ...       0.01 
freq.    1379.97  E(vib)   ...       0.01 
freq.    1380.98  E(vib)   ...       0.01 
freq.    1381.87  E(vib)   ...       0.01 
freq.    1398.48  E(vib)   ...       0.00 
freq.    1398.65  E(vib)   ...       0.00 
freq.    1399.82  E(vib)   ...       0.00 
freq.    1406.38  E(vib)   ...       0.00 
freq.    1445.51  E(vib)   ...       0.00 
freq.    1446.16  E(vib)   ...       0.00 
freq.    1453.16  E(vib)   ...       0.00 
freq.    1460.12  E(vib)   ...       0.00 
freq.    1460.96  E(vib)   ...       0.00 
freq.    1461.21  E(vib)   ...       0.00 
freq.    1461.76  E(vib)   ...       0.00 
freq.    1466.61  E(vib)   ...       0.00 
freq.    1467.68  E(vib)   ...       0.00 
freq.    1468.02  E(vib)   ...       0.00 
freq.    1473.53  E(vib)   ...       0.00 
freq.    1473.71  E(vib)   ...       0.00 
freq.    1474.99  E(vib)   ...       0.00 
freq.    1478.92  E(vib)   ...       0.00 
freq.    1486.58  E(vib)   ...       0.00 
freq.    1491.97  E(vib)   ...       0.00 
freq.    1492.78  E(vib)   ...       0.00 
freq.    1520.58  E(vib)   ...       0.00 
freq.    1521.51  E(vib)   ...       0.00 
freq.    1614.91  E(vib)   ...       0.00 
freq.    1617.88  E(vib)   ...       0.00 
freq.    1631.55  E(vib)   ...       0.00 
freq.    1637.04  E(vib)   ...       0.00 
freq.    1715.43  E(vib)   ...       0.00 
freq.    1732.93  E(vib)   ...       0.00 
freq.    1755.47  E(vib)   ...       0.00 
freq.    2929.43  E(vib)   ...       0.00 
freq.    3018.60  E(vib)   ...       0.00 
freq.    3020.48  E(vib)   ...       0.00 
freq.    3020.94  E(vib)   ...       0.00 
freq.    3023.04  E(vib)   ...       0.00 
freq.    3026.81  E(vib)   ...       0.00 
freq.    3027.88  E(vib)   ...       0.00 
freq.    3038.16  E(vib)   ...       0.00 
freq.    3042.24  E(vib)   ...       0.00 
freq.    3098.79  E(vib)   ...       0.00 
freq.    3105.71  E(vib)   ...       0.00 
freq.    3108.28  E(vib)   ...       0.00 
freq.    3108.40  E(vib)   ...       0.00 
freq.    3109.89  E(vib)   ...       0.00 
freq.    3111.95  E(vib)   ...       0.00 
freq.    3114.14  E(vib)   ...       0.00 
freq.    3122.45  E(vib)   ...       0.00 
freq.    3123.23  E(vib)   ...       0.00 
freq.    3132.18  E(vib)   ...       0.00 
freq.    3133.92  E(vib)   ...       0.00 
freq.    3135.90  E(vib)   ...       0.00 
freq.    3137.87  E(vib)   ...       0.00 
freq.    3141.07  E(vib)   ...       0.00 
freq.    3142.62  E(vib)   ...       0.00 
freq.    3154.94  E(vib)   ...       0.00 
freq.    3164.45  E(vib)   ...       0.00 
freq.    3165.94  E(vib)   ...       0.00 
freq.    3173.43  E(vib)   ...       0.00 
freq.    3174.23  E(vib)   ...       0.00 
freq.    3183.96  E(vib)   ...       0.00 
freq.    3184.62  E(vib)   ...       0.00 
freq.    3190.45  E(vib)   ...       0.00 
freq.    3192.05  E(vib)   ...       0.00 
freq.    3204.10  E(vib)   ...       0.00 

------------
INNER ENERGY
------------

The inner energy is: U= E(el) + E(ZPE) + E(vib) + E(rot) + E(trans)
    E(el)   - is the total energy from the electronic structure calculation
              = E(kin-el) + E(nuc-el) + E(el-el) + E(nuc-nuc)
    E(ZPE)  - the the zero temperature vibrational energy from the frequency calculation
    E(vib)  - the the finite temperature correction to E(ZPE) due to population
              of excited vibrational states
    E(rot)  - is the rotational thermal energy
    E(trans)- is the translational thermal energy

Summary of contributions to the inner energy U:
Electronic energy                ...  -1496.60212527 Eh
Zero point energy                ...      0.55682090 Eh     349.41 kcal/mol
Thermal vibrational correction   ...      0.03128610 Eh      19.63 kcal/mol
Thermal rotational correction    ...      0.00141627 Eh       0.89 kcal/mol
Thermal translational correction ...      0.00141627 Eh       0.89 kcal/mol
-----------------------------------------------------------------------
Total thermal energy                  -1496.01118573 Eh


Summary of corrections to the electronic energy:
(perhaps to be used in another calculation)
Total thermal correction                  0.03411864 Eh      21.41 kcal/mol
Non-thermal (ZPE) correction              0.55682090 Eh     349.41 kcal/mol
-----------------------------------------------------------------------
Total correction                          0.59093954 Eh     370.82 kcal/mol


--------
ENTHALPY
--------

The enthalpy is H = U + kB*T
                kB is Boltzmann's constant
Total free energy                 ...  -1496.01118573 Eh 
Thermal Enthalpy correction       ...      0.00094421 Eh       0.59 kcal/mol
-----------------------------------------------------------------------
Total Enthalpy                    ...  -1496.01024152 Eh


Note: Rotational entropy computed according to Herzberg 
Infrared and Raman Spectra, Chapter V,1, Van Nostrand Reinhold, 1945 
Point Group:  Cs, Symmetry Number:   1  
Rotational constants in cm-1:     0.005553     0.003864     0.003142 

Vibrational entropy computed according to the QRRHO of S. Grimme
Chem.Eur.J. 2012 18 9955


-------
ENTROPY
-------

The entropy contributions are T*S = T*(S(el)+S(vib)+S(rot)+S(trans))
     S(el)   - electronic entropy
     S(vib)  - vibrational entropy
     S(rot)  - rotational entropy
     S(trans)- translational entropy
The entropies will be listed as multiplied by the temperature to get
units of energy

Electronic entropy                ...      0.00000000 Eh      0.00 kcal/mol
Vibrational entropy               ...      0.05625098 Eh     35.30 kcal/mol
Rotational entropy                ...      0.01730610 Eh     10.86 kcal/mol
Translational entropy             ...      0.02101573 Eh     13.19 kcal/mol
-----------------------------------------------------------------------
Final entropy term                ...      0.09457280 Eh     59.35 kcal/mol

In case the symmetry of your molecule has not been determined correctly
or in case you have a reason to use a different symmetry number we print 
out the resulting rotational entropy values for sn=1,12 :
 --------------------------------------------------------
|  sn= 1 | S(rot)=       0.01730610 Eh     10.86 kcal/mol|
|  sn= 2 | S(rot)=       0.01665164 Eh     10.45 kcal/mol|
|  sn= 3 | S(rot)=       0.01626881 Eh     10.21 kcal/mol|
|  sn= 4 | S(rot)=       0.01599719 Eh     10.04 kcal/mol|
|  sn= 5 | S(rot)=       0.01578650 Eh      9.91 kcal/mol|
|  sn= 6 | S(rot)=       0.01561435 Eh      9.80 kcal/mol|
|  sn= 7 | S(rot)=       0.01546881 Eh      9.71 kcal/mol|
|  sn= 8 | S(rot)=       0.01534273 Eh      9.63 kcal/mol|
|  sn= 9 | S(rot)=       0.01523152 Eh      9.56 kcal/mol|
|  sn=10 | S(rot)=       0.01513204 Eh      9.50 kcal/mol|
|  sn=11 | S(rot)=       0.01504205 Eh      9.44 kcal/mol|
|  sn=12 | S(rot)=       0.01495990 Eh      9.39 kcal/mol|
 --------------------------------------------------------


-------------------
GIBBS FREE ENERGY
-------------------

The Gibbs free energy is G = H - T*S

Total enthalpy                    ...  -1496.01024152 Eh 
Total entropy correction          ...     -0.09457280 Eh    -59.35 kcal/mol
-----------------------------------------------------------------------
Final Gibbs free energy         ...  -1496.10481433 Eh

For completeness - the Gibbs free energy minus the electronic energy
G-E(el)                           ...      0.49731094 Eh    312.07 kcal/mol


Timings for individual modules:

Sum of individual times         ...     1367.458 sec (=  22.791 min)
GTO integral calculation        ...        1.697 sec (=   0.028 min)   0.1 %
SCF iterations                  ...       43.161 sec (=   0.719 min)   3.2 %
Analytical frequency calculation...     1322.600 sec (=  22.043 min)  96.7 %
                             ****ORCA TERMINATED NORMALLY****
TOTAL RUN TIME: 0 days 0 hours 22 minutes 49 seconds 161 msec
